PSF EXT CMAP XPLOR AUTOG

         3 !NTITLE
* GENERATED BY CHARMM-GUI (HTTP://WWW.CHARMM-GUI.ORG) V3.7 ON FEB, 28. 2024. JOB
* INPUT GENERATION                                                              
*  DATE:     2/28/24      9: 8:17      CREATED BY USER: apache                  

     28820 !NATOM
         1 MEMB     1        DOPC     N        NTL     -0.600000       14.0070           0
         2 MEMB     1        DOPC     C12      CTL2    -0.100000       12.0110           0
         3 MEMB     1        DOPC     H12A     HL       0.250000       1.00800           0
         4 MEMB     1        DOPC     H12B     HL       0.250000       1.00800           0
         5 MEMB     1        DOPC     C13      CTL5    -0.350000       12.0110           0
         6 MEMB     1        DOPC     H13A     HL       0.250000       1.00800           0
         7 MEMB     1        DOPC     H13B     HL       0.250000       1.00800           0
         8 MEMB     1        DOPC     H13C     HL       0.250000       1.00800           0
         9 MEMB     1        DOPC     C14      CTL5    -0.350000       12.0110           0
        10 MEMB     1        DOPC     H14A     HL       0.250000       1.00800           0
        11 MEMB     1        DOPC     H14B     HL       0.250000       1.00800           0
        12 MEMB     1        DOPC     H14C     HL       0.250000       1.00800           0
        13 MEMB     1        DOPC     C15      CTL5    -0.350000       12.0110           0
        14 MEMB     1        DOPC     H15A     HL       0.250000       1.00800           0
        15 MEMB     1        DOPC     H15B     HL       0.250000       1.00800           0
        16 MEMB     1        DOPC     H15C     HL       0.250000       1.00800           0
        17 MEMB     1        DOPC     C11      CTL2    -0.800000E-01   12.0110           0
        18 MEMB     1        DOPC     H11A     HAL2     0.900000E-01   1.00800           0
        19 MEMB     1        DOPC     H11B     HAL2     0.900000E-01   1.00800           0
        20 MEMB     1        DOPC     P        PL        1.50000       30.9740           0
        21 MEMB     1        DOPC     O13      O2L     -0.780000       15.9994           0
        22 MEMB     1        DOPC     O14      O2L     -0.780000       15.9994           0
        23 MEMB     1        DOPC     O12      OSLP    -0.570000       15.9994           0
        24 MEMB     1        DOPC     O11      OSLP    -0.570000       15.9994           0
        25 MEMB     1        DOPC     C1       CTL2    -0.800000E-01   12.0110           0
        26 MEMB     1        DOPC     HA       HAL2     0.900000E-01   1.00800           0
        27 MEMB     1        DOPC     HB       HAL2     0.900000E-01   1.00800           0
        28 MEMB     1        DOPC     C2       CTL1     0.170000       12.0110           0
        29 MEMB     1        DOPC     HS       HAL1     0.900000E-01   1.00800           0
        30 MEMB     1        DOPC     O21      OSL     -0.490000       15.9994           0
        31 MEMB     1        DOPC     C21      CL       0.900000       12.0110           0
        32 MEMB     1        DOPC     O22      OBL     -0.630000       15.9994           0
        33 MEMB     1        DOPC     C22      CTL2    -0.220000       12.0110           0
        34 MEMB     1        DOPC     H2R      HAL2     0.900000E-01   1.00800           0
        35 MEMB     1        DOPC     H2S      HAL2     0.900000E-01   1.00800           0
        36 MEMB     1        DOPC     C3       CTL2     0.800000E-01   12.0110           0
        37 MEMB     1        DOPC     HX       HAL2     0.900000E-01   1.00800           0
        38 MEMB     1        DOPC     HY       HAL2     0.900000E-01   1.00800           0
        39 MEMB     1        DOPC     O31      OSL     -0.490000       15.9994           0
        40 MEMB     1        DOPC     C31      CL       0.900000       12.0110           0
        41 MEMB     1        DOPC     O32      OBL     -0.630000       15.9994           0
        42 MEMB     1        DOPC     C32      CTL2    -0.220000       12.0110           0
        43 MEMB     1        DOPC     H2X      HAL2     0.900000E-01   1.00800           0
        44 MEMB     1        DOPC     H2Y      HAL2     0.900000E-01   1.00800           0
        45 MEMB     1        DOPC     C23      CTL2    -0.180000       12.0110           0
        46 MEMB     1        DOPC     H3R      HAL2     0.900000E-01   1.00800           0
        47 MEMB     1        DOPC     H3S      HAL2     0.900000E-01   1.00800           0
        48 MEMB     1        DOPC     C24      CTL2    -0.180000       12.0110           0
        49 MEMB     1        DOPC     H4R      HAL2     0.900000E-01   1.00800           0
        50 MEMB     1        DOPC     H4S      HAL2     0.900000E-01   1.00800           0
        51 MEMB     1        DOPC     C25      CTL2    -0.180000       12.0110           0
        52 MEMB     1        DOPC     H5R      HAL2     0.900000E-01   1.00800           0
        53 MEMB     1        DOPC     H5S      HAL2     0.900000E-01   1.00800           0
        54 MEMB     1        DOPC     C26      CTL2    -0.180000       12.0110           0
        55 MEMB     1        DOPC     H6R      HAL2     0.900000E-01   1.00800           0
        56 MEMB     1        DOPC     H6S      HAL2     0.900000E-01   1.00800           0
        57 MEMB     1        DOPC     C27      CTL2    -0.180000       12.0110           0
        58 MEMB     1        DOPC     H7R      HAL2     0.900000E-01   1.00800           0
        59 MEMB     1        DOPC     H7S      HAL2     0.900000E-01   1.00800           0
        60 MEMB     1        DOPC     C28      CTL2    -0.180000       12.0110           0
        61 MEMB     1        DOPC     H8R      HAL2     0.900000E-01   1.00800           0
        62 MEMB     1        DOPC     H8S      HAL2     0.900000E-01   1.00800           0
        63 MEMB     1        DOPC     C29      CEL1    -0.150000       12.0110           0
        64 MEMB     1        DOPC     H9R      HEL1     0.150000       1.00800           0
        65 MEMB     1        DOPC     C210     CEL1    -0.150000       12.0110           0
        66 MEMB     1        DOPC     H10R     HEL1     0.150000       1.00800           0
        67 MEMB     1        DOPC     C211     CTL2    -0.180000       12.0110           0
        68 MEMB     1        DOPC     H11R     HAL2     0.900000E-01   1.00800           0
        69 MEMB     1        DOPC     H11S     HAL2     0.900000E-01   1.00800           0
        70 MEMB     1        DOPC     C212     CTL2    -0.180000       12.0110           0
        71 MEMB     1        DOPC     H12R     HAL2     0.900000E-01   1.00800           0
        72 MEMB     1        DOPC     H12S     HAL2     0.900000E-01   1.00800           0
        73 MEMB     1        DOPC     C213     CTL2    -0.180000       12.0110           0
        74 MEMB     1        DOPC     H13R     HAL2     0.900000E-01   1.00800           0
        75 MEMB     1        DOPC     H13S     HAL2     0.900000E-01   1.00800           0
        76 MEMB     1        DOPC     C214     CTL2    -0.180000       12.0110           0
        77 MEMB     1        DOPC     H14R     HAL2     0.900000E-01   1.00800           0
        78 MEMB     1        DOPC     H14S     HAL2     0.900000E-01   1.00800           0
        79 MEMB     1        DOPC     C215     CTL2    -0.180000       12.0110           0
        80 MEMB     1        DOPC     H15R     HAL2     0.900000E-01   1.00800           0
        81 MEMB     1        DOPC     H15S     HAL2     0.900000E-01   1.00800           0
        82 MEMB     1        DOPC     C216     CTL2    -0.180000       12.0110           0
        83 MEMB     1        DOPC     H16R     HAL2     0.900000E-01   1.00800           0
        84 MEMB     1        DOPC     H16S     HAL2     0.900000E-01   1.00800           0
        85 MEMB     1        DOPC     C217     CTL2    -0.180000       12.0110           0
        86 MEMB     1        DOPC     H17R     HAL2     0.900000E-01   1.00800           0
        87 MEMB     1        DOPC     H17S     HAL2     0.900000E-01   1.00800           0
        88 MEMB     1        DOPC     C218     CTL3    -0.270000       12.0110           0
        89 MEMB     1        DOPC     H18R     HAL3     0.900000E-01   1.00800           0
        90 MEMB     1        DOPC     H18S     HAL3     0.900000E-01   1.00800           0
        91 MEMB     1        DOPC     H18T     HAL3     0.900000E-01   1.00800           0
        92 MEMB     1        DOPC     C33      CTL2    -0.180000       12.0110           0
        93 MEMB     1        DOPC     H3X      HAL2     0.900000E-01   1.00800           0
        94 MEMB     1        DOPC     H3Y      HAL2     0.900000E-01   1.00800           0
        95 MEMB     1        DOPC     C34      CTL2    -0.180000       12.0110           0
        96 MEMB     1        DOPC     H4X      HAL2     0.900000E-01   1.00800           0
        97 MEMB     1        DOPC     H4Y      HAL2     0.900000E-01   1.00800           0
        98 MEMB     1        DOPC     C35      CTL2    -0.180000       12.0110           0
        99 MEMB     1        DOPC     H5X      HAL2     0.900000E-01   1.00800           0
       100 MEMB     1        DOPC     H5Y      HAL2     0.900000E-01   1.00800           0
       101 MEMB     1        DOPC     C36      CTL2    -0.180000       12.0110           0
       102 MEMB     1        DOPC     H6X      HAL2     0.900000E-01   1.00800           0
       103 MEMB     1        DOPC     H6Y      HAL2     0.900000E-01   1.00800           0
       104 MEMB     1        DOPC     C37      CTL2    -0.180000       12.0110           0
       105 MEMB     1        DOPC     H7X      HAL2     0.900000E-01   1.00800           0
       106 MEMB     1        DOPC     H7Y      HAL2     0.900000E-01   1.00800           0
       107 MEMB     1        DOPC     C38      CTL2    -0.180000       12.0110           0
       108 MEMB     1        DOPC     H8X      HAL2     0.900000E-01   1.00800           0
       109 MEMB     1        DOPC     H8Y      HAL2     0.900000E-01   1.00800           0
       110 MEMB     1        DOPC     C39      CEL1    -0.150000       12.0110           0
       111 MEMB     1        DOPC     H9X      HEL1     0.150000       1.00800           0
       112 MEMB     1        DOPC     C310     CEL1    -0.150000       12.0110           0
       113 MEMB     1        DOPC     H10X     HEL1     0.150000       1.00800           0
       114 MEMB     1        DOPC     C311     CTL2    -0.180000       12.0110           0
       115 MEMB     1        DOPC     H11X     HAL2     0.900000E-01   1.00800           0
       116 MEMB     1        DOPC     H11Y     HAL2     0.900000E-01   1.00800           0
       117 MEMB     1        DOPC     C312     CTL2    -0.180000       12.0110           0
       118 MEMB     1        DOPC     H12X     HAL2     0.900000E-01   1.00800           0
       119 MEMB     1        DOPC     H12Y     HAL2     0.900000E-01   1.00800           0
       120 MEMB     1        DOPC     C313     CTL2    -0.180000       12.0110           0
       121 MEMB     1        DOPC     H13X     HAL2     0.900000E-01   1.00800           0
       122 MEMB     1        DOPC     H13Y     HAL2     0.900000E-01   1.00800           0
       123 MEMB     1        DOPC     C314     CTL2    -0.180000       12.0110           0
       124 MEMB     1        DOPC     H14X     HAL2     0.900000E-01   1.00800           0
       125 MEMB     1        DOPC     H14Y     HAL2     0.900000E-01   1.00800           0
       126 MEMB     1        DOPC     C315     CTL2    -0.180000       12.0110           0
       127 MEMB     1        DOPC     H15X     HAL2     0.900000E-01   1.00800           0
       128 MEMB     1        DOPC     H15Y     HAL2     0.900000E-01   1.00800           0
       129 MEMB     1        DOPC     C316     CTL2    -0.180000       12.0110           0
       130 MEMB     1        DOPC     H16X     HAL2     0.900000E-01   1.00800           0
       131 MEMB     1        DOPC     H16Y     HAL2     0.900000E-01   1.00800           0
       132 MEMB     1        DOPC     C317     CTL2    -0.180000       12.0110           0
       133 MEMB     1        DOPC     H17X     HAL2     0.900000E-01   1.00800           0
       134 MEMB     1        DOPC     H17Y     HAL2     0.900000E-01   1.00800           0
       135 MEMB     1        DOPC     C318     CTL3    -0.270000       12.0110           0
       136 MEMB     1        DOPC     H18X     HAL3     0.900000E-01   1.00800           0
       137 MEMB     1        DOPC     H18Y     HAL3     0.900000E-01   1.00800           0
       138 MEMB     1        DOPC     H18Z     HAL3     0.900000E-01   1.00800           0
       139 MEMB     2        DOPC     N        NTL     -0.600000       14.0070           0
       140 MEMB     2        DOPC     C12      CTL2    -0.100000       12.0110           0
       141 MEMB     2        DOPC     H12A     HL       0.250000       1.00800           0
       142 MEMB     2        DOPC     H12B     HL       0.250000       1.00800           0
       143 MEMB     2        DOPC     C13      CTL5    -0.350000       12.0110           0
       144 MEMB     2        DOPC     H13A     HL       0.250000       1.00800           0
       145 MEMB     2        DOPC     H13B     HL       0.250000       1.00800           0
       146 MEMB     2        DOPC     H13C     HL       0.250000       1.00800           0
       147 MEMB     2        DOPC     C14      CTL5    -0.350000       12.0110           0
       148 MEMB     2        DOPC     H14A     HL       0.250000       1.00800           0
       149 MEMB     2        DOPC     H14B     HL       0.250000       1.00800           0
       150 MEMB     2        DOPC     H14C     HL       0.250000       1.00800           0
       151 MEMB     2        DOPC     C15      CTL5    -0.350000       12.0110           0
       152 MEMB     2        DOPC     H15A     HL       0.250000       1.00800           0
       153 MEMB     2        DOPC     H15B     HL       0.250000       1.00800           0
       154 MEMB     2        DOPC     H15C     HL       0.250000       1.00800           0
       155 MEMB     2        DOPC     C11      CTL2    -0.800000E-01   12.0110           0
       156 MEMB     2        DOPC     H11A     HAL2     0.900000E-01   1.00800           0
       157 MEMB     2        DOPC     H11B     HAL2     0.900000E-01   1.00800           0
       158 MEMB     2        DOPC     P        PL        1.50000       30.9740           0
       159 MEMB     2        DOPC     O13      O2L     -0.780000       15.9994           0
       160 MEMB     2        DOPC     O14      O2L     -0.780000       15.9994           0
       161 MEMB     2        DOPC     O12      OSLP    -0.570000       15.9994           0
       162 MEMB     2        DOPC     O11      OSLP    -0.570000       15.9994           0
       163 MEMB     2        DOPC     C1       CTL2    -0.800000E-01   12.0110           0
       164 MEMB     2        DOPC     HA       HAL2     0.900000E-01   1.00800           0
       165 MEMB     2        DOPC     HB       HAL2     0.900000E-01   1.00800           0
       166 MEMB     2        DOPC     C2       CTL1     0.170000       12.0110           0
       167 MEMB     2        DOPC     HS       HAL1     0.900000E-01   1.00800           0
       168 MEMB     2        DOPC     O21      OSL     -0.490000       15.9994           0
       169 MEMB     2        DOPC     C21      CL       0.900000       12.0110           0
       170 MEMB     2        DOPC     O22      OBL     -0.630000       15.9994           0
       171 MEMB     2        DOPC     C22      CTL2    -0.220000       12.0110           0
       172 MEMB     2        DOPC     H2R      HAL2     0.900000E-01   1.00800           0
       173 MEMB     2        DOPC     H2S      HAL2     0.900000E-01   1.00800           0
       174 MEMB     2        DOPC     C3       CTL2     0.800000E-01   12.0110           0
       175 MEMB     2        DOPC     HX       HAL2     0.900000E-01   1.00800           0
       176 MEMB     2        DOPC     HY       HAL2     0.900000E-01   1.00800           0
       177 MEMB     2        DOPC     O31      OSL     -0.490000       15.9994           0
       178 MEMB     2        DOPC     C31      CL       0.900000       12.0110           0
       179 MEMB     2        DOPC     O32      OBL     -0.630000       15.9994           0
       180 MEMB     2        DOPC     C32      CTL2    -0.220000       12.0110           0
       181 MEMB     2        DOPC     H2X      HAL2     0.900000E-01   1.00800           0
       182 MEMB     2        DOPC     H2Y      HAL2     0.900000E-01   1.00800           0
       183 MEMB     2        DOPC     C23      CTL2    -0.180000       12.0110           0
       184 MEMB     2        DOPC     H3R      HAL2     0.900000E-01   1.00800           0
       185 MEMB     2        DOPC     H3S      HAL2     0.900000E-01   1.00800           0
       186 MEMB     2        DOPC     C24      CTL2    -0.180000       12.0110           0
       187 MEMB     2        DOPC     H4R      HAL2     0.900000E-01   1.00800           0
       188 MEMB     2        DOPC     H4S      HAL2     0.900000E-01   1.00800           0
       189 MEMB     2        DOPC     C25      CTL2    -0.180000       12.0110           0
       190 MEMB     2        DOPC     H5R      HAL2     0.900000E-01   1.00800           0
       191 MEMB     2        DOPC     H5S      HAL2     0.900000E-01   1.00800           0
       192 MEMB     2        DOPC     C26      CTL2    -0.180000       12.0110           0
       193 MEMB     2        DOPC     H6R      HAL2     0.900000E-01   1.00800           0
       194 MEMB     2        DOPC     H6S      HAL2     0.900000E-01   1.00800           0
       195 MEMB     2        DOPC     C27      CTL2    -0.180000       12.0110           0
       196 MEMB     2        DOPC     H7R      HAL2     0.900000E-01   1.00800           0
       197 MEMB     2        DOPC     H7S      HAL2     0.900000E-01   1.00800           0
       198 MEMB     2        DOPC     C28      CTL2    -0.180000       12.0110           0
       199 MEMB     2        DOPC     H8R      HAL2     0.900000E-01   1.00800           0
       200 MEMB     2        DOPC     H8S      HAL2     0.900000E-01   1.00800           0
       201 MEMB     2        DOPC     C29      CEL1    -0.150000       12.0110           0
       202 MEMB     2        DOPC     H9R      HEL1     0.150000       1.00800           0
       203 MEMB     2        DOPC     C210     CEL1    -0.150000       12.0110           0
       204 MEMB     2        DOPC     H10R     HEL1     0.150000       1.00800           0
       205 MEMB     2        DOPC     C211     CTL2    -0.180000       12.0110           0
       206 MEMB     2        DOPC     H11R     HAL2     0.900000E-01   1.00800           0
       207 MEMB     2        DOPC     H11S     HAL2     0.900000E-01   1.00800           0
       208 MEMB     2        DOPC     C212     CTL2    -0.180000       12.0110           0
       209 MEMB     2        DOPC     H12R     HAL2     0.900000E-01   1.00800           0
       210 MEMB     2        DOPC     H12S     HAL2     0.900000E-01   1.00800           0
       211 MEMB     2        DOPC     C213     CTL2    -0.180000       12.0110           0
       212 MEMB     2        DOPC     H13R     HAL2     0.900000E-01   1.00800           0
       213 MEMB     2        DOPC     H13S     HAL2     0.900000E-01   1.00800           0
       214 MEMB     2        DOPC     C214     CTL2    -0.180000       12.0110           0
       215 MEMB     2        DOPC     H14R     HAL2     0.900000E-01   1.00800           0
       216 MEMB     2        DOPC     H14S     HAL2     0.900000E-01   1.00800           0
       217 MEMB     2        DOPC     C215     CTL2    -0.180000       12.0110           0
       218 MEMB     2        DOPC     H15R     HAL2     0.900000E-01   1.00800           0
       219 MEMB     2        DOPC     H15S     HAL2     0.900000E-01   1.00800           0
       220 MEMB     2        DOPC     C216     CTL2    -0.180000       12.0110           0
       221 MEMB     2        DOPC     H16R     HAL2     0.900000E-01   1.00800           0
       222 MEMB     2        DOPC     H16S     HAL2     0.900000E-01   1.00800           0
       223 MEMB     2        DOPC     C217     CTL2    -0.180000       12.0110           0
       224 MEMB     2        DOPC     H17R     HAL2     0.900000E-01   1.00800           0
       225 MEMB     2        DOPC     H17S     HAL2     0.900000E-01   1.00800           0
       226 MEMB     2        DOPC     C218     CTL3    -0.270000       12.0110           0
       227 MEMB     2        DOPC     H18R     HAL3     0.900000E-01   1.00800           0
       228 MEMB     2        DOPC     H18S     HAL3     0.900000E-01   1.00800           0
       229 MEMB     2        DOPC     H18T     HAL3     0.900000E-01   1.00800           0
       230 MEMB     2        DOPC     C33      CTL2    -0.180000       12.0110           0
       231 MEMB     2        DOPC     H3X      HAL2     0.900000E-01   1.00800           0
       232 MEMB     2        DOPC     H3Y      HAL2     0.900000E-01   1.00800           0
       233 MEMB     2        DOPC     C34      CTL2    -0.180000       12.0110           0
       234 MEMB     2        DOPC     H4X      HAL2     0.900000E-01   1.00800           0
       235 MEMB     2        DOPC     H4Y      HAL2     0.900000E-01   1.00800           0
       236 MEMB     2        DOPC     C35      CTL2    -0.180000       12.0110           0
       237 MEMB     2        DOPC     H5X      HAL2     0.900000E-01   1.00800           0
       238 MEMB     2        DOPC     H5Y      HAL2     0.900000E-01   1.00800           0
       239 MEMB     2        DOPC     C36      CTL2    -0.180000       12.0110           0
       240 MEMB     2        DOPC     H6X      HAL2     0.900000E-01   1.00800           0
       241 MEMB     2        DOPC     H6Y      HAL2     0.900000E-01   1.00800           0
       242 MEMB     2        DOPC     C37      CTL2    -0.180000       12.0110           0
       243 MEMB     2        DOPC     H7X      HAL2     0.900000E-01   1.00800           0
       244 MEMB     2        DOPC     H7Y      HAL2     0.900000E-01   1.00800           0
       245 MEMB     2        DOPC     C38      CTL2    -0.180000       12.0110           0
       246 MEMB     2        DOPC     H8X      HAL2     0.900000E-01   1.00800           0
       247 MEMB     2        DOPC     H8Y      HAL2     0.900000E-01   1.00800           0
       248 MEMB     2        DOPC     C39      CEL1    -0.150000       12.0110           0
       249 MEMB     2        DOPC     H9X      HEL1     0.150000       1.00800           0
       250 MEMB     2        DOPC     C310     CEL1    -0.150000       12.0110           0
       251 MEMB     2        DOPC     H10X     HEL1     0.150000       1.00800           0
       252 MEMB     2        DOPC     C311     CTL2    -0.180000       12.0110           0
       253 MEMB     2        DOPC     H11X     HAL2     0.900000E-01   1.00800           0
       254 MEMB     2        DOPC     H11Y     HAL2     0.900000E-01   1.00800           0
       255 MEMB     2        DOPC     C312     CTL2    -0.180000       12.0110           0
       256 MEMB     2        DOPC     H12X     HAL2     0.900000E-01   1.00800           0
       257 MEMB     2        DOPC     H12Y     HAL2     0.900000E-01   1.00800           0
       258 MEMB     2        DOPC     C313     CTL2    -0.180000       12.0110           0
       259 MEMB     2        DOPC     H13X     HAL2     0.900000E-01   1.00800           0
       260 MEMB     2        DOPC     H13Y     HAL2     0.900000E-01   1.00800           0
       261 MEMB     2        DOPC     C314     CTL2    -0.180000       12.0110           0
       262 MEMB     2        DOPC     H14X     HAL2     0.900000E-01   1.00800           0
       263 MEMB     2        DOPC     H14Y     HAL2     0.900000E-01   1.00800           0
       264 MEMB     2        DOPC     C315     CTL2    -0.180000       12.0110           0
       265 MEMB     2        DOPC     H15X     HAL2     0.900000E-01   1.00800           0
       266 MEMB     2        DOPC     H15Y     HAL2     0.900000E-01   1.00800           0
       267 MEMB     2        DOPC     C316     CTL2    -0.180000       12.0110           0
       268 MEMB     2        DOPC     H16X     HAL2     0.900000E-01   1.00800           0
       269 MEMB     2        DOPC     H16Y     HAL2     0.900000E-01   1.00800           0
       270 MEMB     2        DOPC     C317     CTL2    -0.180000       12.0110           0
       271 MEMB     2        DOPC     H17X     HAL2     0.900000E-01   1.00800           0
       272 MEMB     2        DOPC     H17Y     HAL2     0.900000E-01   1.00800           0
       273 MEMB     2        DOPC     C318     CTL3    -0.270000       12.0110           0
       274 MEMB     2        DOPC     H18X     HAL3     0.900000E-01   1.00800           0
       275 MEMB     2        DOPC     H18Y     HAL3     0.900000E-01   1.00800           0
       276 MEMB     2        DOPC     H18Z     HAL3     0.900000E-01   1.00800           0
       277 MEMB     3        DOPC     N        NTL     -0.600000       14.0070           0
       278 MEMB     3        DOPC     C12      CTL2    -0.100000       12.0110           0
       279 MEMB     3        DOPC     H12A     HL       0.250000       1.00800           0
       280 MEMB     3        DOPC     H12B     HL       0.250000       1.00800           0
       281 MEMB     3        DOPC     C13      CTL5    -0.350000       12.0110           0
       282 MEMB     3        DOPC     H13A     HL       0.250000       1.00800           0
       283 MEMB     3        DOPC     H13B     HL       0.250000       1.00800           0
       284 MEMB     3        DOPC     H13C     HL       0.250000       1.00800           0
       285 MEMB     3        DOPC     C14      CTL5    -0.350000       12.0110           0
       286 MEMB     3        DOPC     H14A     HL       0.250000       1.00800           0
       287 MEMB     3        DOPC     H14B     HL       0.250000       1.00800           0
       288 MEMB     3        DOPC     H14C     HL       0.250000       1.00800           0
       289 MEMB     3        DOPC     C15      CTL5    -0.350000       12.0110           0
       290 MEMB     3        DOPC     H15A     HL       0.250000       1.00800           0
       291 MEMB     3        DOPC     H15B     HL       0.250000       1.00800           0
       292 MEMB     3        DOPC     H15C     HL       0.250000       1.00800           0
       293 MEMB     3        DOPC     C11      CTL2    -0.800000E-01   12.0110           0
       294 MEMB     3        DOPC     H11A     HAL2     0.900000E-01   1.00800           0
       295 MEMB     3        DOPC     H11B     HAL2     0.900000E-01   1.00800           0
       296 MEMB     3        DOPC     P        PL        1.50000       30.9740           0
       297 MEMB     3        DOPC     O13      O2L     -0.780000       15.9994           0
       298 MEMB     3        DOPC     O14      O2L     -0.780000       15.9994           0
       299 MEMB     3        DOPC     O12      OSLP    -0.570000       15.9994           0
       300 MEMB     3        DOPC     O11      OSLP    -0.570000       15.9994           0
       301 MEMB     3        DOPC     C1       CTL2    -0.800000E-01   12.0110           0
       302 MEMB     3        DOPC     HA       HAL2     0.900000E-01   1.00800           0
       303 MEMB     3        DOPC     HB       HAL2     0.900000E-01   1.00800           0
       304 MEMB     3        DOPC     C2       CTL1     0.170000       12.0110           0
       305 MEMB     3        DOPC     HS       HAL1     0.900000E-01   1.00800           0
       306 MEMB     3        DOPC     O21      OSL     -0.490000       15.9994           0
       307 MEMB     3        DOPC     C21      CL       0.900000       12.0110           0
       308 MEMB     3        DOPC     O22      OBL     -0.630000       15.9994           0
       309 MEMB     3        DOPC     C22      CTL2    -0.220000       12.0110           0
       310 MEMB     3        DOPC     H2R      HAL2     0.900000E-01   1.00800           0
       311 MEMB     3        DOPC     H2S      HAL2     0.900000E-01   1.00800           0
       312 MEMB     3        DOPC     C3       CTL2     0.800000E-01   12.0110           0
       313 MEMB     3        DOPC     HX       HAL2     0.900000E-01   1.00800           0
       314 MEMB     3        DOPC     HY       HAL2     0.900000E-01   1.00800           0
       315 MEMB     3        DOPC     O31      OSL     -0.490000       15.9994           0
       316 MEMB     3        DOPC     C31      CL       0.900000       12.0110           0
       317 MEMB     3        DOPC     O32      OBL     -0.630000       15.9994           0
       318 MEMB     3        DOPC     C32      CTL2    -0.220000       12.0110           0
       319 MEMB     3        DOPC     H2X      HAL2     0.900000E-01   1.00800           0
       320 MEMB     3        DOPC     H2Y      HAL2     0.900000E-01   1.00800           0
       321 MEMB     3        DOPC     C23      CTL2    -0.180000       12.0110           0
       322 MEMB     3        DOPC     H3R      HAL2     0.900000E-01   1.00800           0
       323 MEMB     3        DOPC     H3S      HAL2     0.900000E-01   1.00800           0
       324 MEMB     3        DOPC     C24      CTL2    -0.180000       12.0110           0
       325 MEMB     3        DOPC     H4R      HAL2     0.900000E-01   1.00800           0
       326 MEMB     3        DOPC     H4S      HAL2     0.900000E-01   1.00800           0
       327 MEMB     3        DOPC     C25      CTL2    -0.180000       12.0110           0
       328 MEMB     3        DOPC     H5R      HAL2     0.900000E-01   1.00800           0
       329 MEMB     3        DOPC     H5S      HAL2     0.900000E-01   1.00800           0
       330 MEMB     3        DOPC     C26      CTL2    -0.180000       12.0110           0
       331 MEMB     3        DOPC     H6R      HAL2     0.900000E-01   1.00800           0
       332 MEMB     3        DOPC     H6S      HAL2     0.900000E-01   1.00800           0
       333 MEMB     3        DOPC     C27      CTL2    -0.180000       12.0110           0
       334 MEMB     3        DOPC     H7R      HAL2     0.900000E-01   1.00800           0
       335 MEMB     3        DOPC     H7S      HAL2     0.900000E-01   1.00800           0
       336 MEMB     3        DOPC     C28      CTL2    -0.180000       12.0110           0
       337 MEMB     3        DOPC     H8R      HAL2     0.900000E-01   1.00800           0
       338 MEMB     3        DOPC     H8S      HAL2     0.900000E-01   1.00800           0
       339 MEMB     3        DOPC     C29      CEL1    -0.150000       12.0110           0
       340 MEMB     3        DOPC     H9R      HEL1     0.150000       1.00800           0
       341 MEMB     3        DOPC     C210     CEL1    -0.150000       12.0110           0
       342 MEMB     3        DOPC     H10R     HEL1     0.150000       1.00800           0
       343 MEMB     3        DOPC     C211     CTL2    -0.180000       12.0110           0
       344 MEMB     3        DOPC     H11R     HAL2     0.900000E-01   1.00800           0
       345 MEMB     3        DOPC     H11S     HAL2     0.900000E-01   1.00800           0
       346 MEMB     3        DOPC     C212     CTL2    -0.180000       12.0110           0
       347 MEMB     3        DOPC     H12R     HAL2     0.900000E-01   1.00800           0
       348 MEMB     3        DOPC     H12S     HAL2     0.900000E-01   1.00800           0
       349 MEMB     3        DOPC     C213     CTL2    -0.180000       12.0110           0
       350 MEMB     3        DOPC     H13R     HAL2     0.900000E-01   1.00800           0
       351 MEMB     3        DOPC     H13S     HAL2     0.900000E-01   1.00800           0
       352 MEMB     3        DOPC     C214     CTL2    -0.180000       12.0110           0
       353 MEMB     3        DOPC     H14R     HAL2     0.900000E-01   1.00800           0
       354 MEMB     3        DOPC     H14S     HAL2     0.900000E-01   1.00800           0
       355 MEMB     3        DOPC     C215     CTL2    -0.180000       12.0110           0
       356 MEMB     3        DOPC     H15R     HAL2     0.900000E-01   1.00800           0
       357 MEMB     3        DOPC     H15S     HAL2     0.900000E-01   1.00800           0
       358 MEMB     3        DOPC     C216     CTL2    -0.180000       12.0110           0
       359 MEMB     3        DOPC     H16R     HAL2     0.900000E-01   1.00800           0
       360 MEMB     3        DOPC     H16S     HAL2     0.900000E-01   1.00800           0
       361 MEMB     3        DOPC     C217     CTL2    -0.180000       12.0110           0
       362 MEMB     3        DOPC     H17R     HAL2     0.900000E-01   1.00800           0
       363 MEMB     3        DOPC     H17S     HAL2     0.900000E-01   1.00800           0
       364 MEMB     3        DOPC     C218     CTL3    -0.270000       12.0110           0
       365 MEMB     3        DOPC     H18R     HAL3     0.900000E-01   1.00800           0
       366 MEMB     3        DOPC     H18S     HAL3     0.900000E-01   1.00800           0
       367 MEMB     3        DOPC     H18T     HAL3     0.900000E-01   1.00800           0
       368 MEMB     3        DOPC     C33      CTL2    -0.180000       12.0110           0
       369 MEMB     3        DOPC     H3X      HAL2     0.900000E-01   1.00800           0
       370 MEMB     3        DOPC     H3Y      HAL2     0.900000E-01   1.00800           0
       371 MEMB     3        DOPC     C34      CTL2    -0.180000       12.0110           0
       372 MEMB     3        DOPC     H4X      HAL2     0.900000E-01   1.00800           0
       373 MEMB     3        DOPC     H4Y      HAL2     0.900000E-01   1.00800           0
       374 MEMB     3        DOPC     C35      CTL2    -0.180000       12.0110           0
       375 MEMB     3        DOPC     H5X      HAL2     0.900000E-01   1.00800           0
       376 MEMB     3        DOPC     H5Y      HAL2     0.900000E-01   1.00800           0
       377 MEMB     3        DOPC     C36      CTL2    -0.180000       12.0110           0
       378 MEMB     3        DOPC     H6X      HAL2     0.900000E-01   1.00800           0
       379 MEMB     3        DOPC     H6Y      HAL2     0.900000E-01   1.00800           0
       380 MEMB     3        DOPC     C37      CTL2    -0.180000       12.0110           0
       381 MEMB     3        DOPC     H7X      HAL2     0.900000E-01   1.00800           0
       382 MEMB     3        DOPC     H7Y      HAL2     0.900000E-01   1.00800           0
       383 MEMB     3        DOPC     C38      CTL2    -0.180000       12.0110           0
       384 MEMB     3        DOPC     H8X      HAL2     0.900000E-01   1.00800           0
       385 MEMB     3        DOPC     H8Y      HAL2     0.900000E-01   1.00800           0
       386 MEMB     3        DOPC     C39      CEL1    -0.150000       12.0110           0
       387 MEMB     3        DOPC     H9X      HEL1     0.150000       1.00800           0
       388 MEMB     3        DOPC     C310     CEL1    -0.150000       12.0110           0
       389 MEMB     3        DOPC     H10X     HEL1     0.150000       1.00800           0
       390 MEMB     3        DOPC     C311     CTL2    -0.180000       12.0110           0
       391 MEMB     3        DOPC     H11X     HAL2     0.900000E-01   1.00800           0
       392 MEMB     3        DOPC     H11Y     HAL2     0.900000E-01   1.00800           0
       393 MEMB     3        DOPC     C312     CTL2    -0.180000       12.0110           0
       394 MEMB     3        DOPC     H12X     HAL2     0.900000E-01   1.00800           0
       395 MEMB     3        DOPC     H12Y     HAL2     0.900000E-01   1.00800           0
       396 MEMB     3        DOPC     C313     CTL2    -0.180000       12.0110           0
       397 MEMB     3        DOPC     H13X     HAL2     0.900000E-01   1.00800           0
       398 MEMB     3        DOPC     H13Y     HAL2     0.900000E-01   1.00800           0
       399 MEMB     3        DOPC     C314     CTL2    -0.180000       12.0110           0
       400 MEMB     3        DOPC     H14X     HAL2     0.900000E-01   1.00800           0
       401 MEMB     3        DOPC     H14Y     HAL2     0.900000E-01   1.00800           0
       402 MEMB     3        DOPC     C315     CTL2    -0.180000       12.0110           0
       403 MEMB     3        DOPC     H15X     HAL2     0.900000E-01   1.00800           0
       404 MEMB     3        DOPC     H15Y     HAL2     0.900000E-01   1.00800           0
       405 MEMB     3        DOPC     C316     CTL2    -0.180000       12.0110           0
       406 MEMB     3        DOPC     H16X     HAL2     0.900000E-01   1.00800           0
       407 MEMB     3        DOPC     H16Y     HAL2     0.900000E-01   1.00800           0
       408 MEMB     3        DOPC     C317     CTL2    -0.180000       12.0110           0
       409 MEMB     3        DOPC     H17X     HAL2     0.900000E-01   1.00800           0
       410 MEMB     3        DOPC     H17Y     HAL2     0.900000E-01   1.00800           0
       411 MEMB     3        DOPC     C318     CTL3    -0.270000       12.0110           0
       412 MEMB     3        DOPC     H18X     HAL3     0.900000E-01   1.00800           0
       413 MEMB     3        DOPC     H18Y     HAL3     0.900000E-01   1.00800           0
       414 MEMB     3        DOPC     H18Z     HAL3     0.900000E-01   1.00800           0
       415 MEMB     4        DOPC     N        NTL     -0.600000       14.0070           0
       416 MEMB     4        DOPC     C12      CTL2    -0.100000       12.0110           0
       417 MEMB     4        DOPC     H12A     HL       0.250000       1.00800           0
       418 MEMB     4        DOPC     H12B     HL       0.250000       1.00800           0
       419 MEMB     4        DOPC     C13      CTL5    -0.350000       12.0110           0
       420 MEMB     4        DOPC     H13A     HL       0.250000       1.00800           0
       421 MEMB     4        DOPC     H13B     HL       0.250000       1.00800           0
       422 MEMB     4        DOPC     H13C     HL       0.250000       1.00800           0
       423 MEMB     4        DOPC     C14      CTL5    -0.350000       12.0110           0
       424 MEMB     4        DOPC     H14A     HL       0.250000       1.00800           0
       425 MEMB     4        DOPC     H14B     HL       0.250000       1.00800           0
       426 MEMB     4        DOPC     H14C     HL       0.250000       1.00800           0
       427 MEMB     4        DOPC     C15      CTL5    -0.350000       12.0110           0
       428 MEMB     4        DOPC     H15A     HL       0.250000       1.00800           0
       429 MEMB     4        DOPC     H15B     HL       0.250000       1.00800           0
       430 MEMB     4        DOPC     H15C     HL       0.250000       1.00800           0
       431 MEMB     4        DOPC     C11      CTL2    -0.800000E-01   12.0110           0
       432 MEMB     4        DOPC     H11A     HAL2     0.900000E-01   1.00800           0
       433 MEMB     4        DOPC     H11B     HAL2     0.900000E-01   1.00800           0
       434 MEMB     4        DOPC     P        PL        1.50000       30.9740           0
       435 MEMB     4        DOPC     O13      O2L     -0.780000       15.9994           0
       436 MEMB     4        DOPC     O14      O2L     -0.780000       15.9994           0
       437 MEMB     4        DOPC     O12      OSLP    -0.570000       15.9994           0
       438 MEMB     4        DOPC     O11      OSLP    -0.570000       15.9994           0
       439 MEMB     4        DOPC     C1       CTL2    -0.800000E-01   12.0110           0
       440 MEMB     4        DOPC     HA       HAL2     0.900000E-01   1.00800           0
       441 MEMB     4        DOPC     HB       HAL2     0.900000E-01   1.00800           0
       442 MEMB     4        DOPC     C2       CTL1     0.170000       12.0110           0
       443 MEMB     4        DOPC     HS       HAL1     0.900000E-01   1.00800           0
       444 MEMB     4        DOPC     O21      OSL     -0.490000       15.9994           0
       445 MEMB     4        DOPC     C21      CL       0.900000       12.0110           0
       446 MEMB     4        DOPC     O22      OBL     -0.630000       15.9994           0
       447 MEMB     4        DOPC     C22      CTL2    -0.220000       12.0110           0
       448 MEMB     4        DOPC     H2R      HAL2     0.900000E-01   1.00800           0
       449 MEMB     4        DOPC     H2S      HAL2     0.900000E-01   1.00800           0
       450 MEMB     4        DOPC     C3       CTL2     0.800000E-01   12.0110           0
       451 MEMB     4        DOPC     HX       HAL2     0.900000E-01   1.00800           0
       452 MEMB     4        DOPC     HY       HAL2     0.900000E-01   1.00800           0
       453 MEMB     4        DOPC     O31      OSL     -0.490000       15.9994           0
       454 MEMB     4        DOPC     C31      CL       0.900000       12.0110           0
       455 MEMB     4        DOPC     O32      OBL     -0.630000       15.9994           0
       456 MEMB     4        DOPC     C32      CTL2    -0.220000       12.0110           0
       457 MEMB     4        DOPC     H2X      HAL2     0.900000E-01   1.00800           0
       458 MEMB     4        DOPC     H2Y      HAL2     0.900000E-01   1.00800           0
       459 MEMB     4        DOPC     C23      CTL2    -0.180000       12.0110           0
       460 MEMB     4        DOPC     H3R      HAL2     0.900000E-01   1.00800           0
       461 MEMB     4        DOPC     H3S      HAL2     0.900000E-01   1.00800           0
       462 MEMB     4        DOPC     C24      CTL2    -0.180000       12.0110           0
       463 MEMB     4        DOPC     H4R      HAL2     0.900000E-01   1.00800           0
       464 MEMB     4        DOPC     H4S      HAL2     0.900000E-01   1.00800           0
       465 MEMB     4        DOPC     C25      CTL2    -0.180000       12.0110           0
       466 MEMB     4        DOPC     H5R      HAL2     0.900000E-01   1.00800           0
       467 MEMB     4        DOPC     H5S      HAL2     0.900000E-01   1.00800           0
       468 MEMB     4        DOPC     C26      CTL2    -0.180000       12.0110           0
       469 MEMB     4        DOPC     H6R      HAL2     0.900000E-01   1.00800           0
       470 MEMB     4        DOPC     H6S      HAL2     0.900000E-01   1.00800           0
       471 MEMB     4        DOPC     C27      CTL2    -0.180000       12.0110           0
       472 MEMB     4        DOPC     H7R      HAL2     0.900000E-01   1.00800           0
       473 MEMB     4        DOPC     H7S      HAL2     0.900000E-01   1.00800           0
       474 MEMB     4        DOPC     C28      CTL2    -0.180000       12.0110           0
       475 MEMB     4        DOPC     H8R      HAL2     0.900000E-01   1.00800           0
       476 MEMB     4        DOPC     H8S      HAL2     0.900000E-01   1.00800           0
       477 MEMB     4        DOPC     C29      CEL1    -0.150000       12.0110           0
       478 MEMB     4        DOPC     H9R      HEL1     0.150000       1.00800           0
       479 MEMB     4        DOPC     C210     CEL1    -0.150000       12.0110           0
       480 MEMB     4        DOPC     H10R     HEL1     0.150000       1.00800           0
       481 MEMB     4        DOPC     C211     CTL2    -0.180000       12.0110           0
       482 MEMB     4        DOPC     H11R     HAL2     0.900000E-01   1.00800           0
       483 MEMB     4        DOPC     H11S     HAL2     0.900000E-01   1.00800           0
       484 MEMB     4        DOPC     C212     CTL2    -0.180000       12.0110           0
       485 MEMB     4        DOPC     H12R     HAL2     0.900000E-01   1.00800           0
       486 MEMB     4        DOPC     H12S     HAL2     0.900000E-01   1.00800           0
       487 MEMB     4        DOPC     C213     CTL2    -0.180000       12.0110           0
       488 MEMB     4        DOPC     H13R     HAL2     0.900000E-01   1.00800           0
       489 MEMB     4        DOPC     H13S     HAL2     0.900000E-01   1.00800           0
       490 MEMB     4        DOPC     C214     CTL2    -0.180000       12.0110           0
       491 MEMB     4        DOPC     H14R     HAL2     0.900000E-01   1.00800           0
       492 MEMB     4        DOPC     H14S     HAL2     0.900000E-01   1.00800           0
       493 MEMB     4        DOPC     C215     CTL2    -0.180000       12.0110           0
       494 MEMB     4        DOPC     H15R     HAL2     0.900000E-01   1.00800           0
       495 MEMB     4        DOPC     H15S     HAL2     0.900000E-01   1.00800           0
       496 MEMB     4        DOPC     C216     CTL2    -0.180000       12.0110           0
       497 MEMB     4        DOPC     H16R     HAL2     0.900000E-01   1.00800           0
       498 MEMB     4        DOPC     H16S     HAL2     0.900000E-01   1.00800           0
       499 MEMB     4        DOPC     C217     CTL2    -0.180000       12.0110           0
       500 MEMB     4        DOPC     H17R     HAL2     0.900000E-01   1.00800           0
       501 MEMB     4        DOPC     H17S     HAL2     0.900000E-01   1.00800           0
       502 MEMB     4        DOPC     C218     CTL3    -0.270000       12.0110           0
       503 MEMB     4        DOPC     H18R     HAL3     0.900000E-01   1.00800           0
       504 MEMB     4        DOPC     H18S     HAL3     0.900000E-01   1.00800           0
       505 MEMB     4        DOPC     H18T     HAL3     0.900000E-01   1.00800           0
       506 MEMB     4        DOPC     C33      CTL2    -0.180000       12.0110           0
       507 MEMB     4        DOPC     H3X      HAL2     0.900000E-01   1.00800           0
       508 MEMB     4        DOPC     H3Y      HAL2     0.900000E-01   1.00800           0
       509 MEMB     4        DOPC     C34      CTL2    -0.180000       12.0110           0
       510 MEMB     4        DOPC     H4X      HAL2     0.900000E-01   1.00800           0
       511 MEMB     4        DOPC     H4Y      HAL2     0.900000E-01   1.00800           0
       512 MEMB     4        DOPC     C35      CTL2    -0.180000       12.0110           0
       513 MEMB     4        DOPC     H5X      HAL2     0.900000E-01   1.00800           0
       514 MEMB     4        DOPC     H5Y      HAL2     0.900000E-01   1.00800           0
       515 MEMB     4        DOPC     C36      CTL2    -0.180000       12.0110           0
       516 MEMB     4        DOPC     H6X      HAL2     0.900000E-01   1.00800           0
       517 MEMB     4        DOPC     H6Y      HAL2     0.900000E-01   1.00800           0
       518 MEMB     4        DOPC     C37      CTL2    -0.180000       12.0110           0
       519 MEMB     4        DOPC     H7X      HAL2     0.900000E-01   1.00800           0
       520 MEMB     4        DOPC     H7Y      HAL2     0.900000E-01   1.00800           0
       521 MEMB     4        DOPC     C38      CTL2    -0.180000       12.0110           0
       522 MEMB     4        DOPC     H8X      HAL2     0.900000E-01   1.00800           0
       523 MEMB     4        DOPC     H8Y      HAL2     0.900000E-01   1.00800           0
       524 MEMB     4        DOPC     C39      CEL1    -0.150000       12.0110           0
       525 MEMB     4        DOPC     H9X      HEL1     0.150000       1.00800           0
       526 MEMB     4        DOPC     C310     CEL1    -0.150000       12.0110           0
       527 MEMB     4        DOPC     H10X     HEL1     0.150000       1.00800           0
       528 MEMB     4        DOPC     C311     CTL2    -0.180000       12.0110           0
       529 MEMB     4        DOPC     H11X     HAL2     0.900000E-01   1.00800           0
       530 MEMB     4        DOPC     H11Y     HAL2     0.900000E-01   1.00800           0
       531 MEMB     4        DOPC     C312     CTL2    -0.180000       12.0110           0
       532 MEMB     4        DOPC     H12X     HAL2     0.900000E-01   1.00800           0
       533 MEMB     4        DOPC     H12Y     HAL2     0.900000E-01   1.00800           0
       534 MEMB     4        DOPC     C313     CTL2    -0.180000       12.0110           0
       535 MEMB     4        DOPC     H13X     HAL2     0.900000E-01   1.00800           0
       536 MEMB     4        DOPC     H13Y     HAL2     0.900000E-01   1.00800           0
       537 MEMB     4        DOPC     C314     CTL2    -0.180000       12.0110           0
       538 MEMB     4        DOPC     H14X     HAL2     0.900000E-01   1.00800           0
       539 MEMB     4        DOPC     H14Y     HAL2     0.900000E-01   1.00800           0
       540 MEMB     4        DOPC     C315     CTL2    -0.180000       12.0110           0
       541 MEMB     4        DOPC     H15X     HAL2     0.900000E-01   1.00800           0
       542 MEMB     4        DOPC     H15Y     HAL2     0.900000E-01   1.00800           0
       543 MEMB     4        DOPC     C316     CTL2    -0.180000       12.0110           0
       544 MEMB     4        DOPC     H16X     HAL2     0.900000E-01   1.00800           0
       545 MEMB     4        DOPC     H16Y     HAL2     0.900000E-01   1.00800           0
       546 MEMB     4        DOPC     C317     CTL2    -0.180000       12.0110           0
       547 MEMB     4        DOPC     H17X     HAL2     0.900000E-01   1.00800           0
       548 MEMB     4        DOPC     H17Y     HAL2     0.900000E-01   1.00800           0
       549 MEMB     4        DOPC     C318     CTL3    -0.270000       12.0110           0
       550 MEMB     4        DOPC     H18X     HAL3     0.900000E-01   1.00800           0
       551 MEMB     4        DOPC     H18Y     HAL3     0.900000E-01   1.00800           0
       552 MEMB     4        DOPC     H18Z     HAL3     0.900000E-01   1.00800           0
       553 MEMB     5        DOPC     N        NTL     -0.600000       14.0070           0
       554 MEMB     5        DOPC     C12      CTL2    -0.100000       12.0110           0
       555 MEMB     5        DOPC     H12A     HL       0.250000       1.00800           0
       556 MEMB     5        DOPC     H12B     HL       0.250000       1.00800           0
       557 MEMB     5        DOPC     C13      CTL5    -0.350000       12.0110           0
       558 MEMB     5        DOPC     H13A     HL       0.250000       1.00800           0
       559 MEMB     5        DOPC     H13B     HL       0.250000       1.00800           0
       560 MEMB     5        DOPC     H13C     HL       0.250000       1.00800           0
       561 MEMB     5        DOPC     C14      CTL5    -0.350000       12.0110           0
       562 MEMB     5        DOPC     H14A     HL       0.250000       1.00800           0
       563 MEMB     5        DOPC     H14B     HL       0.250000       1.00800           0
       564 MEMB     5        DOPC     H14C     HL       0.250000       1.00800           0
       565 MEMB     5        DOPC     C15      CTL5    -0.350000       12.0110           0
       566 MEMB     5        DOPC     H15A     HL       0.250000       1.00800           0
       567 MEMB     5        DOPC     H15B     HL       0.250000       1.00800           0
       568 MEMB     5        DOPC     H15C     HL       0.250000       1.00800           0
       569 MEMB     5        DOPC     C11      CTL2    -0.800000E-01   12.0110           0
       570 MEMB     5        DOPC     H11A     HAL2     0.900000E-01   1.00800           0
       571 MEMB     5        DOPC     H11B     HAL2     0.900000E-01   1.00800           0
       572 MEMB     5        DOPC     P        PL        1.50000       30.9740           0
       573 MEMB     5        DOPC     O13      O2L     -0.780000       15.9994           0
       574 MEMB     5        DOPC     O14      O2L     -0.780000       15.9994           0
       575 MEMB     5        DOPC     O12      OSLP    -0.570000       15.9994           0
       576 MEMB     5        DOPC     O11      OSLP    -0.570000       15.9994           0
       577 MEMB     5        DOPC     C1       CTL2    -0.800000E-01   12.0110           0
       578 MEMB     5        DOPC     HA       HAL2     0.900000E-01   1.00800           0
       579 MEMB     5        DOPC     HB       HAL2     0.900000E-01   1.00800           0
       580 MEMB     5        DOPC     C2       CTL1     0.170000       12.0110           0
       581 MEMB     5        DOPC     HS       HAL1     0.900000E-01   1.00800           0
       582 MEMB     5        DOPC     O21      OSL     -0.490000       15.9994           0
       583 MEMB     5        DOPC     C21      CL       0.900000       12.0110           0
       584 MEMB     5        DOPC     O22      OBL     -0.630000       15.9994           0
       585 MEMB     5        DOPC     C22      CTL2    -0.220000       12.0110           0
       586 MEMB     5        DOPC     H2R      HAL2     0.900000E-01   1.00800           0
       587 MEMB     5        DOPC     H2S      HAL2     0.900000E-01   1.00800           0
       588 MEMB     5        DOPC     C3       CTL2     0.800000E-01   12.0110           0
       589 MEMB     5        DOPC     HX       HAL2     0.900000E-01   1.00800           0
       590 MEMB     5        DOPC     HY       HAL2     0.900000E-01   1.00800           0
       591 MEMB     5        DOPC     O31      OSL     -0.490000       15.9994           0
       592 MEMB     5        DOPC     C31      CL       0.900000       12.0110           0
       593 MEMB     5        DOPC     O32      OBL     -0.630000       15.9994           0
       594 MEMB     5        DOPC     C32      CTL2    -0.220000       12.0110           0
       595 MEMB     5        DOPC     H2X      HAL2     0.900000E-01   1.00800           0
       596 MEMB     5        DOPC     H2Y      HAL2     0.900000E-01   1.00800           0
       597 MEMB     5        DOPC     C23      CTL2    -0.180000       12.0110           0
       598 MEMB     5        DOPC     H3R      HAL2     0.900000E-01   1.00800           0
       599 MEMB     5        DOPC     H3S      HAL2     0.900000E-01   1.00800           0
       600 MEMB     5        DOPC     C24      CTL2    -0.180000       12.0110           0
       601 MEMB     5        DOPC     H4R      HAL2     0.900000E-01   1.00800           0
       602 MEMB     5        DOPC     H4S      HAL2     0.900000E-01   1.00800           0
       603 MEMB     5        DOPC     C25      CTL2    -0.180000       12.0110           0
       604 MEMB     5        DOPC     H5R      HAL2     0.900000E-01   1.00800           0
       605 MEMB     5        DOPC     H5S      HAL2     0.900000E-01   1.00800           0
       606 MEMB     5        DOPC     C26      CTL2    -0.180000       12.0110           0
       607 MEMB     5        DOPC     H6R      HAL2     0.900000E-01   1.00800           0
       608 MEMB     5        DOPC     H6S      HAL2     0.900000E-01   1.00800           0
       609 MEMB     5        DOPC     C27      CTL2    -0.180000       12.0110           0
       610 MEMB     5        DOPC     H7R      HAL2     0.900000E-01   1.00800           0
       611 MEMB     5        DOPC     H7S      HAL2     0.900000E-01   1.00800           0
       612 MEMB     5        DOPC     C28      CTL2    -0.180000       12.0110           0
       613 MEMB     5        DOPC     H8R      HAL2     0.900000E-01   1.00800           0
       614 MEMB     5        DOPC     H8S      HAL2     0.900000E-01   1.00800           0
       615 MEMB     5        DOPC     C29      CEL1    -0.150000       12.0110           0
       616 MEMB     5        DOPC     H9R      HEL1     0.150000       1.00800           0
       617 MEMB     5        DOPC     C210     CEL1    -0.150000       12.0110           0
       618 MEMB     5        DOPC     H10R     HEL1     0.150000       1.00800           0
       619 MEMB     5        DOPC     C211     CTL2    -0.180000       12.0110           0
       620 MEMB     5        DOPC     H11R     HAL2     0.900000E-01   1.00800           0
       621 MEMB     5        DOPC     H11S     HAL2     0.900000E-01   1.00800           0
       622 MEMB     5        DOPC     C212     CTL2    -0.180000       12.0110           0
       623 MEMB     5        DOPC     H12R     HAL2     0.900000E-01   1.00800           0
       624 MEMB     5        DOPC     H12S     HAL2     0.900000E-01   1.00800           0
       625 MEMB     5        DOPC     C213     CTL2    -0.180000       12.0110           0
       626 MEMB     5        DOPC     H13R     HAL2     0.900000E-01   1.00800           0
       627 MEMB     5        DOPC     H13S     HAL2     0.900000E-01   1.00800           0
       628 MEMB     5        DOPC     C214     CTL2    -0.180000       12.0110           0
       629 MEMB     5        DOPC     H14R     HAL2     0.900000E-01   1.00800           0
       630 MEMB     5        DOPC     H14S     HAL2     0.900000E-01   1.00800           0
       631 MEMB     5        DOPC     C215     CTL2    -0.180000       12.0110           0
       632 MEMB     5        DOPC     H15R     HAL2     0.900000E-01   1.00800           0
       633 MEMB     5        DOPC     H15S     HAL2     0.900000E-01   1.00800           0
       634 MEMB     5        DOPC     C216     CTL2    -0.180000       12.0110           0
       635 MEMB     5        DOPC     H16R     HAL2     0.900000E-01   1.00800           0
       636 MEMB     5        DOPC     H16S     HAL2     0.900000E-01   1.00800           0
       637 MEMB     5        DOPC     C217     CTL2    -0.180000       12.0110           0
       638 MEMB     5        DOPC     H17R     HAL2     0.900000E-01   1.00800           0
       639 MEMB     5        DOPC     H17S     HAL2     0.900000E-01   1.00800           0
       640 MEMB     5        DOPC     C218     CTL3    -0.270000       12.0110           0
       641 MEMB     5        DOPC     H18R     HAL3     0.900000E-01   1.00800           0
       642 MEMB     5        DOPC     H18S     HAL3     0.900000E-01   1.00800           0
       643 MEMB     5        DOPC     H18T     HAL3     0.900000E-01   1.00800           0
       644 MEMB     5        DOPC     C33      CTL2    -0.180000       12.0110           0
       645 MEMB     5        DOPC     H3X      HAL2     0.900000E-01   1.00800           0
       646 MEMB     5        DOPC     H3Y      HAL2     0.900000E-01   1.00800           0
       647 MEMB     5        DOPC     C34      CTL2    -0.180000       12.0110           0
       648 MEMB     5        DOPC     H4X      HAL2     0.900000E-01   1.00800           0
       649 MEMB     5        DOPC     H4Y      HAL2     0.900000E-01   1.00800           0
       650 MEMB     5        DOPC     C35      CTL2    -0.180000       12.0110           0
       651 MEMB     5        DOPC     H5X      HAL2     0.900000E-01   1.00800           0
       652 MEMB     5        DOPC     H5Y      HAL2     0.900000E-01   1.00800           0
       653 MEMB     5        DOPC     C36      CTL2    -0.180000       12.0110           0
       654 MEMB     5        DOPC     H6X      HAL2     0.900000E-01   1.00800           0
       655 MEMB     5        DOPC     H6Y      HAL2     0.900000E-01   1.00800           0
       656 MEMB     5        DOPC     C37      CTL2    -0.180000       12.0110           0
       657 MEMB     5        DOPC     H7X      HAL2     0.900000E-01   1.00800           0
       658 MEMB     5        DOPC     H7Y      HAL2     0.900000E-01   1.00800           0
       659 MEMB     5        DOPC     C38      CTL2    -0.180000       12.0110           0
       660 MEMB     5        DOPC     H8X      HAL2     0.900000E-01   1.00800           0
       661 MEMB     5        DOPC     H8Y      HAL2     0.900000E-01   1.00800           0
       662 MEMB     5        DOPC     C39      CEL1    -0.150000       12.0110           0
       663 MEMB     5        DOPC     H9X      HEL1     0.150000       1.00800           0
       664 MEMB     5        DOPC     C310     CEL1    -0.150000       12.0110           0
       665 MEMB     5        DOPC     H10X     HEL1     0.150000       1.00800           0
       666 MEMB     5        DOPC     C311     CTL2    -0.180000       12.0110           0
       667 MEMB     5        DOPC     H11X     HAL2     0.900000E-01   1.00800           0
       668 MEMB     5        DOPC     H11Y     HAL2     0.900000E-01   1.00800           0
       669 MEMB     5        DOPC     C312     CTL2    -0.180000       12.0110           0
       670 MEMB     5        DOPC     H12X     HAL2     0.900000E-01   1.00800           0
       671 MEMB     5        DOPC     H12Y     HAL2     0.900000E-01   1.00800           0
       672 MEMB     5        DOPC     C313     CTL2    -0.180000       12.0110           0
       673 MEMB     5        DOPC     H13X     HAL2     0.900000E-01   1.00800           0
       674 MEMB     5        DOPC     H13Y     HAL2     0.900000E-01   1.00800           0
       675 MEMB     5        DOPC     C314     CTL2    -0.180000       12.0110           0
       676 MEMB     5        DOPC     H14X     HAL2     0.900000E-01   1.00800           0
       677 MEMB     5        DOPC     H14Y     HAL2     0.900000E-01   1.00800           0
       678 MEMB     5        DOPC     C315     CTL2    -0.180000       12.0110           0
       679 MEMB     5        DOPC     H15X     HAL2     0.900000E-01   1.00800           0
       680 MEMB     5        DOPC     H15Y     HAL2     0.900000E-01   1.00800           0
       681 MEMB     5        DOPC     C316     CTL2    -0.180000       12.0110           0
       682 MEMB     5        DOPC     H16X     HAL2     0.900000E-01   1.00800           0
       683 MEMB     5        DOPC     H16Y     HAL2     0.900000E-01   1.00800           0
       684 MEMB     5        DOPC     C317     CTL2    -0.180000       12.0110           0
       685 MEMB     5        DOPC     H17X     HAL2     0.900000E-01   1.00800           0
       686 MEMB     5        DOPC     H17Y     HAL2     0.900000E-01   1.00800           0
       687 MEMB     5        DOPC     C318     CTL3    -0.270000       12.0110           0
       688 MEMB     5        DOPC     H18X     HAL3     0.900000E-01   1.00800           0
       689 MEMB     5        DOPC     H18Y     HAL3     0.900000E-01   1.00800           0
       690 MEMB     5        DOPC     H18Z     HAL3     0.900000E-01   1.00800           0
       691 MEMB     6        DOPC     N        NTL     -0.600000       14.0070           0
       692 MEMB     6        DOPC     C12      CTL2    -0.100000       12.0110           0
       693 MEMB     6        DOPC     H12A     HL       0.250000       1.00800           0
       694 MEMB     6        DOPC     H12B     HL       0.250000       1.00800           0
       695 MEMB     6        DOPC     C13      CTL5    -0.350000       12.0110           0
       696 MEMB     6        DOPC     H13A     HL       0.250000       1.00800           0
       697 MEMB     6        DOPC     H13B     HL       0.250000       1.00800           0
       698 MEMB     6        DOPC     H13C     HL       0.250000       1.00800           0
       699 MEMB     6        DOPC     C14      CTL5    -0.350000       12.0110           0
       700 MEMB     6        DOPC     H14A     HL       0.250000       1.00800           0
       701 MEMB     6        DOPC     H14B     HL       0.250000       1.00800           0
       702 MEMB     6        DOPC     H14C     HL       0.250000       1.00800           0
       703 MEMB     6        DOPC     C15      CTL5    -0.350000       12.0110           0
       704 MEMB     6        DOPC     H15A     HL       0.250000       1.00800           0
       705 MEMB     6        DOPC     H15B     HL       0.250000       1.00800           0
       706 MEMB     6        DOPC     H15C     HL       0.250000       1.00800           0
       707 MEMB     6        DOPC     C11      CTL2    -0.800000E-01   12.0110           0
       708 MEMB     6        DOPC     H11A     HAL2     0.900000E-01   1.00800           0
       709 MEMB     6        DOPC     H11B     HAL2     0.900000E-01   1.00800           0
       710 MEMB     6        DOPC     P        PL        1.50000       30.9740           0
       711 MEMB     6        DOPC     O13      O2L     -0.780000       15.9994           0
       712 MEMB     6        DOPC     O14      O2L     -0.780000       15.9994           0
       713 MEMB     6        DOPC     O12      OSLP    -0.570000       15.9994           0
       714 MEMB     6        DOPC     O11      OSLP    -0.570000       15.9994           0
       715 MEMB     6        DOPC     C1       CTL2    -0.800000E-01   12.0110           0
       716 MEMB     6        DOPC     HA       HAL2     0.900000E-01   1.00800           0
       717 MEMB     6        DOPC     HB       HAL2     0.900000E-01   1.00800           0
       718 MEMB     6        DOPC     C2       CTL1     0.170000       12.0110           0
       719 MEMB     6        DOPC     HS       HAL1     0.900000E-01   1.00800           0
       720 MEMB     6        DOPC     O21      OSL     -0.490000       15.9994           0
       721 MEMB     6        DOPC     C21      CL       0.900000       12.0110           0
       722 MEMB     6        DOPC     O22      OBL     -0.630000       15.9994           0
       723 MEMB     6        DOPC     C22      CTL2    -0.220000       12.0110           0
       724 MEMB     6        DOPC     H2R      HAL2     0.900000E-01   1.00800           0
       725 MEMB     6        DOPC     H2S      HAL2     0.900000E-01   1.00800           0
       726 MEMB     6        DOPC     C3       CTL2     0.800000E-01   12.0110           0
       727 MEMB     6        DOPC     HX       HAL2     0.900000E-01   1.00800           0
       728 MEMB     6        DOPC     HY       HAL2     0.900000E-01   1.00800           0
       729 MEMB     6        DOPC     O31      OSL     -0.490000       15.9994           0
       730 MEMB     6        DOPC     C31      CL       0.900000       12.0110           0
       731 MEMB     6        DOPC     O32      OBL     -0.630000       15.9994           0
       732 MEMB     6        DOPC     C32      CTL2    -0.220000       12.0110           0
       733 MEMB     6        DOPC     H2X      HAL2     0.900000E-01   1.00800           0
       734 MEMB     6        DOPC     H2Y      HAL2     0.900000E-01   1.00800           0
       735 MEMB     6        DOPC     C23      CTL2    -0.180000       12.0110           0
       736 MEMB     6        DOPC     H3R      HAL2     0.900000E-01   1.00800           0
       737 MEMB     6        DOPC     H3S      HAL2     0.900000E-01   1.00800           0
       738 MEMB     6        DOPC     C24      CTL2    -0.180000       12.0110           0
       739 MEMB     6        DOPC     H4R      HAL2     0.900000E-01   1.00800           0
       740 MEMB     6        DOPC     H4S      HAL2     0.900000E-01   1.00800           0
       741 MEMB     6        DOPC     C25      CTL2    -0.180000       12.0110           0
       742 MEMB     6        DOPC     H5R      HAL2     0.900000E-01   1.00800           0
       743 MEMB     6        DOPC     H5S      HAL2     0.900000E-01   1.00800           0
       744 MEMB     6        DOPC     C26      CTL2    -0.180000       12.0110           0
       745 MEMB     6        DOPC     H6R      HAL2     0.900000E-01   1.00800           0
       746 MEMB     6        DOPC     H6S      HAL2     0.900000E-01   1.00800           0
       747 MEMB     6        DOPC     C27      CTL2    -0.180000       12.0110           0
       748 MEMB     6        DOPC     H7R      HAL2     0.900000E-01   1.00800           0
       749 MEMB     6        DOPC     H7S      HAL2     0.900000E-01   1.00800           0
       750 MEMB     6        DOPC     C28      CTL2    -0.180000       12.0110           0
       751 MEMB     6        DOPC     H8R      HAL2     0.900000E-01   1.00800           0
       752 MEMB     6        DOPC     H8S      HAL2     0.900000E-01   1.00800           0
       753 MEMB     6        DOPC     C29      CEL1    -0.150000       12.0110           0
       754 MEMB     6        DOPC     H9R      HEL1     0.150000       1.00800           0
       755 MEMB     6        DOPC     C210     CEL1    -0.150000       12.0110           0
       756 MEMB     6        DOPC     H10R     HEL1     0.150000       1.00800           0
       757 MEMB     6        DOPC     C211     CTL2    -0.180000       12.0110           0
       758 MEMB     6        DOPC     H11R     HAL2     0.900000E-01   1.00800           0
       759 MEMB     6        DOPC     H11S     HAL2     0.900000E-01   1.00800           0
       760 MEMB     6        DOPC     C212     CTL2    -0.180000       12.0110           0
       761 MEMB     6        DOPC     H12R     HAL2     0.900000E-01   1.00800           0
       762 MEMB     6        DOPC     H12S     HAL2     0.900000E-01   1.00800           0
       763 MEMB     6        DOPC     C213     CTL2    -0.180000       12.0110           0
       764 MEMB     6        DOPC     H13R     HAL2     0.900000E-01   1.00800           0
       765 MEMB     6        DOPC     H13S     HAL2     0.900000E-01   1.00800           0
       766 MEMB     6        DOPC     C214     CTL2    -0.180000       12.0110           0
       767 MEMB     6        DOPC     H14R     HAL2     0.900000E-01   1.00800           0
       768 MEMB     6        DOPC     H14S     HAL2     0.900000E-01   1.00800           0
       769 MEMB     6        DOPC     C215     CTL2    -0.180000       12.0110           0
       770 MEMB     6        DOPC     H15R     HAL2     0.900000E-01   1.00800           0
       771 MEMB     6        DOPC     H15S     HAL2     0.900000E-01   1.00800           0
       772 MEMB     6        DOPC     C216     CTL2    -0.180000       12.0110           0
       773 MEMB     6        DOPC     H16R     HAL2     0.900000E-01   1.00800           0
       774 MEMB     6        DOPC     H16S     HAL2     0.900000E-01   1.00800           0
       775 MEMB     6        DOPC     C217     CTL2    -0.180000       12.0110           0
       776 MEMB     6        DOPC     H17R     HAL2     0.900000E-01   1.00800           0
       777 MEMB     6        DOPC     H17S     HAL2     0.900000E-01   1.00800           0
       778 MEMB     6        DOPC     C218     CTL3    -0.270000       12.0110           0
       779 MEMB     6        DOPC     H18R     HAL3     0.900000E-01   1.00800           0
       780 MEMB     6        DOPC     H18S     HAL3     0.900000E-01   1.00800           0
       781 MEMB     6        DOPC     H18T     HAL3     0.900000E-01   1.00800           0
       782 MEMB     6        DOPC     C33      CTL2    -0.180000       12.0110           0
       783 MEMB     6        DOPC     H3X      HAL2     0.900000E-01   1.00800           0
       784 MEMB     6        DOPC     H3Y      HAL2     0.900000E-01   1.00800           0
       785 MEMB     6        DOPC     C34      CTL2    -0.180000       12.0110           0
       786 MEMB     6        DOPC     H4X      HAL2     0.900000E-01   1.00800           0
       787 MEMB     6        DOPC     H4Y      HAL2     0.900000E-01   1.00800           0
       788 MEMB     6        DOPC     C35      CTL2    -0.180000       12.0110           0
       789 MEMB     6        DOPC     H5X      HAL2     0.900000E-01   1.00800           0
       790 MEMB     6        DOPC     H5Y      HAL2     0.900000E-01   1.00800           0
       791 MEMB     6        DOPC     C36      CTL2    -0.180000       12.0110           0
       792 MEMB     6        DOPC     H6X      HAL2     0.900000E-01   1.00800           0
       793 MEMB     6        DOPC     H6Y      HAL2     0.900000E-01   1.00800           0
       794 MEMB     6        DOPC     C37      CTL2    -0.180000       12.0110           0
       795 MEMB     6        DOPC     H7X      HAL2     0.900000E-01   1.00800           0
       796 MEMB     6        DOPC     H7Y      HAL2     0.900000E-01   1.00800           0
       797 MEMB     6        DOPC     C38      CTL2    -0.180000       12.0110           0
       798 MEMB     6        DOPC     H8X      HAL2     0.900000E-01   1.00800           0
       799 MEMB     6        DOPC     H8Y      HAL2     0.900000E-01   1.00800           0
       800 MEMB     6        DOPC     C39      CEL1    -0.150000       12.0110           0
       801 MEMB     6        DOPC     H9X      HEL1     0.150000       1.00800           0
       802 MEMB     6        DOPC     C310     CEL1    -0.150000       12.0110           0
       803 MEMB     6        DOPC     H10X     HEL1     0.150000       1.00800           0
       804 MEMB     6        DOPC     C311     CTL2    -0.180000       12.0110           0
       805 MEMB     6        DOPC     H11X     HAL2     0.900000E-01   1.00800           0
       806 MEMB     6        DOPC     H11Y     HAL2     0.900000E-01   1.00800           0
       807 MEMB     6        DOPC     C312     CTL2    -0.180000       12.0110           0
       808 MEMB     6        DOPC     H12X     HAL2     0.900000E-01   1.00800           0
       809 MEMB     6        DOPC     H12Y     HAL2     0.900000E-01   1.00800           0
       810 MEMB     6        DOPC     C313     CTL2    -0.180000       12.0110           0
       811 MEMB     6        DOPC     H13X     HAL2     0.900000E-01   1.00800           0
       812 MEMB     6        DOPC     H13Y     HAL2     0.900000E-01   1.00800           0
       813 MEMB     6        DOPC     C314     CTL2    -0.180000       12.0110           0
       814 MEMB     6        DOPC     H14X     HAL2     0.900000E-01   1.00800           0
       815 MEMB     6        DOPC     H14Y     HAL2     0.900000E-01   1.00800           0
       816 MEMB     6        DOPC     C315     CTL2    -0.180000       12.0110           0
       817 MEMB     6        DOPC     H15X     HAL2     0.900000E-01   1.00800           0
       818 MEMB     6        DOPC     H15Y     HAL2     0.900000E-01   1.00800           0
       819 MEMB     6        DOPC     C316     CTL2    -0.180000       12.0110           0
       820 MEMB     6        DOPC     H16X     HAL2     0.900000E-01   1.00800           0
       821 MEMB     6        DOPC     H16Y     HAL2     0.900000E-01   1.00800           0
       822 MEMB     6        DOPC     C317     CTL2    -0.180000       12.0110           0
       823 MEMB     6        DOPC     H17X     HAL2     0.900000E-01   1.00800           0
       824 MEMB     6        DOPC     H17Y     HAL2     0.900000E-01   1.00800           0
       825 MEMB     6        DOPC     C318     CTL3    -0.270000       12.0110           0
       826 MEMB     6        DOPC     H18X     HAL3     0.900000E-01   1.00800           0
       827 MEMB     6        DOPC     H18Y     HAL3     0.900000E-01   1.00800           0
       828 MEMB     6        DOPC     H18Z     HAL3     0.900000E-01   1.00800           0
       829 MEMB     7        DOPC     N        NTL     -0.600000       14.0070           0
       830 MEMB     7        DOPC     C12      CTL2    -0.100000       12.0110           0
       831 MEMB     7        DOPC     H12A     HL       0.250000       1.00800           0
       832 MEMB     7        DOPC     H12B     HL       0.250000       1.00800           0
       833 MEMB     7        DOPC     C13      CTL5    -0.350000       12.0110           0
       834 MEMB     7        DOPC     H13A     HL       0.250000       1.00800           0
       835 MEMB     7        DOPC     H13B     HL       0.250000       1.00800           0
       836 MEMB     7        DOPC     H13C     HL       0.250000       1.00800           0
       837 MEMB     7        DOPC     C14      CTL5    -0.350000       12.0110           0
       838 MEMB     7        DOPC     H14A     HL       0.250000       1.00800           0
       839 MEMB     7        DOPC     H14B     HL       0.250000       1.00800           0
       840 MEMB     7        DOPC     H14C     HL       0.250000       1.00800           0
       841 MEMB     7        DOPC     C15      CTL5    -0.350000       12.0110           0
       842 MEMB     7        DOPC     H15A     HL       0.250000       1.00800           0
       843 MEMB     7        DOPC     H15B     HL       0.250000       1.00800           0
       844 MEMB     7        DOPC     H15C     HL       0.250000       1.00800           0
       845 MEMB     7        DOPC     C11      CTL2    -0.800000E-01   12.0110           0
       846 MEMB     7        DOPC     H11A     HAL2     0.900000E-01   1.00800           0
       847 MEMB     7        DOPC     H11B     HAL2     0.900000E-01   1.00800           0
       848 MEMB     7        DOPC     P        PL        1.50000       30.9740           0
       849 MEMB     7        DOPC     O13      O2L     -0.780000       15.9994           0
       850 MEMB     7        DOPC     O14      O2L     -0.780000       15.9994           0
       851 MEMB     7        DOPC     O12      OSLP    -0.570000       15.9994           0
       852 MEMB     7        DOPC     O11      OSLP    -0.570000       15.9994           0
       853 MEMB     7        DOPC     C1       CTL2    -0.800000E-01   12.0110           0
       854 MEMB     7        DOPC     HA       HAL2     0.900000E-01   1.00800           0
       855 MEMB     7        DOPC     HB       HAL2     0.900000E-01   1.00800           0
       856 MEMB     7        DOPC     C2       CTL1     0.170000       12.0110           0
       857 MEMB     7        DOPC     HS       HAL1     0.900000E-01   1.00800           0
       858 MEMB     7        DOPC     O21      OSL     -0.490000       15.9994           0
       859 MEMB     7        DOPC     C21      CL       0.900000       12.0110           0
       860 MEMB     7        DOPC     O22      OBL     -0.630000       15.9994           0
       861 MEMB     7        DOPC     C22      CTL2    -0.220000       12.0110           0
       862 MEMB     7        DOPC     H2R      HAL2     0.900000E-01   1.00800           0
       863 MEMB     7        DOPC     H2S      HAL2     0.900000E-01   1.00800           0
       864 MEMB     7        DOPC     C3       CTL2     0.800000E-01   12.0110           0
       865 MEMB     7        DOPC     HX       HAL2     0.900000E-01   1.00800           0
       866 MEMB     7        DOPC     HY       HAL2     0.900000E-01   1.00800           0
       867 MEMB     7        DOPC     O31      OSL     -0.490000       15.9994           0
       868 MEMB     7        DOPC     C31      CL       0.900000       12.0110           0
       869 MEMB     7        DOPC     O32      OBL     -0.630000       15.9994           0
       870 MEMB     7        DOPC     C32      CTL2    -0.220000       12.0110           0
       871 MEMB     7        DOPC     H2X      HAL2     0.900000E-01   1.00800           0
       872 MEMB     7        DOPC     H2Y      HAL2     0.900000E-01   1.00800           0
       873 MEMB     7        DOPC     C23      CTL2    -0.180000       12.0110           0
       874 MEMB     7        DOPC     H3R      HAL2     0.900000E-01   1.00800           0
       875 MEMB     7        DOPC     H3S      HAL2     0.900000E-01   1.00800           0
       876 MEMB     7        DOPC     C24      CTL2    -0.180000       12.0110           0
       877 MEMB     7        DOPC     H4R      HAL2     0.900000E-01   1.00800           0
       878 MEMB     7        DOPC     H4S      HAL2     0.900000E-01   1.00800           0
       879 MEMB     7        DOPC     C25      CTL2    -0.180000       12.0110           0
       880 MEMB     7        DOPC     H5R      HAL2     0.900000E-01   1.00800           0
       881 MEMB     7        DOPC     H5S      HAL2     0.900000E-01   1.00800           0
       882 MEMB     7        DOPC     C26      CTL2    -0.180000       12.0110           0
       883 MEMB     7        DOPC     H6R      HAL2     0.900000E-01   1.00800           0
       884 MEMB     7        DOPC     H6S      HAL2     0.900000E-01   1.00800           0
       885 MEMB     7        DOPC     C27      CTL2    -0.180000       12.0110           0
       886 MEMB     7        DOPC     H7R      HAL2     0.900000E-01   1.00800           0
       887 MEMB     7        DOPC     H7S      HAL2     0.900000E-01   1.00800           0
       888 MEMB     7        DOPC     C28      CTL2    -0.180000       12.0110           0
       889 MEMB     7        DOPC     H8R      HAL2     0.900000E-01   1.00800           0
       890 MEMB     7        DOPC     H8S      HAL2     0.900000E-01   1.00800           0
       891 MEMB     7        DOPC     C29      CEL1    -0.150000       12.0110           0
       892 MEMB     7        DOPC     H9R      HEL1     0.150000       1.00800           0
       893 MEMB     7        DOPC     C210     CEL1    -0.150000       12.0110           0
       894 MEMB     7        DOPC     H10R     HEL1     0.150000       1.00800           0
       895 MEMB     7        DOPC     C211     CTL2    -0.180000       12.0110           0
       896 MEMB     7        DOPC     H11R     HAL2     0.900000E-01   1.00800           0
       897 MEMB     7        DOPC     H11S     HAL2     0.900000E-01   1.00800           0
       898 MEMB     7        DOPC     C212     CTL2    -0.180000       12.0110           0
       899 MEMB     7        DOPC     H12R     HAL2     0.900000E-01   1.00800           0
       900 MEMB     7        DOPC     H12S     HAL2     0.900000E-01   1.00800           0
       901 MEMB     7        DOPC     C213     CTL2    -0.180000       12.0110           0
       902 MEMB     7        DOPC     H13R     HAL2     0.900000E-01   1.00800           0
       903 MEMB     7        DOPC     H13S     HAL2     0.900000E-01   1.00800           0
       904 MEMB     7        DOPC     C214     CTL2    -0.180000       12.0110           0
       905 MEMB     7        DOPC     H14R     HAL2     0.900000E-01   1.00800           0
       906 MEMB     7        DOPC     H14S     HAL2     0.900000E-01   1.00800           0
       907 MEMB     7        DOPC     C215     CTL2    -0.180000       12.0110           0
       908 MEMB     7        DOPC     H15R     HAL2     0.900000E-01   1.00800           0
       909 MEMB     7        DOPC     H15S     HAL2     0.900000E-01   1.00800           0
       910 MEMB     7        DOPC     C216     CTL2    -0.180000       12.0110           0
       911 MEMB     7        DOPC     H16R     HAL2     0.900000E-01   1.00800           0
       912 MEMB     7        DOPC     H16S     HAL2     0.900000E-01   1.00800           0
       913 MEMB     7        DOPC     C217     CTL2    -0.180000       12.0110           0
       914 MEMB     7        DOPC     H17R     HAL2     0.900000E-01   1.00800           0
       915 MEMB     7        DOPC     H17S     HAL2     0.900000E-01   1.00800           0
       916 MEMB     7        DOPC     C218     CTL3    -0.270000       12.0110           0
       917 MEMB     7        DOPC     H18R     HAL3     0.900000E-01   1.00800           0
       918 MEMB     7        DOPC     H18S     HAL3     0.900000E-01   1.00800           0
       919 MEMB     7        DOPC     H18T     HAL3     0.900000E-01   1.00800           0
       920 MEMB     7        DOPC     C33      CTL2    -0.180000       12.0110           0
       921 MEMB     7        DOPC     H3X      HAL2     0.900000E-01   1.00800           0
       922 MEMB     7        DOPC     H3Y      HAL2     0.900000E-01   1.00800           0
       923 MEMB     7        DOPC     C34      CTL2    -0.180000       12.0110           0
       924 MEMB     7        DOPC     H4X      HAL2     0.900000E-01   1.00800           0
       925 MEMB     7        DOPC     H4Y      HAL2     0.900000E-01   1.00800           0
       926 MEMB     7        DOPC     C35      CTL2    -0.180000       12.0110           0
       927 MEMB     7        DOPC     H5X      HAL2     0.900000E-01   1.00800           0
       928 MEMB     7        DOPC     H5Y      HAL2     0.900000E-01   1.00800           0
       929 MEMB     7        DOPC     C36      CTL2    -0.180000       12.0110           0
       930 MEMB     7        DOPC     H6X      HAL2     0.900000E-01   1.00800           0
       931 MEMB     7        DOPC     H6Y      HAL2     0.900000E-01   1.00800           0
       932 MEMB     7        DOPC     C37      CTL2    -0.180000       12.0110           0
       933 MEMB     7        DOPC     H7X      HAL2     0.900000E-01   1.00800           0
       934 MEMB     7        DOPC     H7Y      HAL2     0.900000E-01   1.00800           0
       935 MEMB     7        DOPC     C38      CTL2    -0.180000       12.0110           0
       936 MEMB     7        DOPC     H8X      HAL2     0.900000E-01   1.00800           0
       937 MEMB     7        DOPC     H8Y      HAL2     0.900000E-01   1.00800           0
       938 MEMB     7        DOPC     C39      CEL1    -0.150000       12.0110           0
       939 MEMB     7        DOPC     H9X      HEL1     0.150000       1.00800           0
       940 MEMB     7        DOPC     C310     CEL1    -0.150000       12.0110           0
       941 MEMB     7        DOPC     H10X     HEL1     0.150000       1.00800           0
       942 MEMB     7        DOPC     C311     CTL2    -0.180000       12.0110           0
       943 MEMB     7        DOPC     H11X     HAL2     0.900000E-01   1.00800           0
       944 MEMB     7        DOPC     H11Y     HAL2     0.900000E-01   1.00800           0
       945 MEMB     7        DOPC     C312     CTL2    -0.180000       12.0110           0
       946 MEMB     7        DOPC     H12X     HAL2     0.900000E-01   1.00800           0
       947 MEMB     7        DOPC     H12Y     HAL2     0.900000E-01   1.00800           0
       948 MEMB     7        DOPC     C313     CTL2    -0.180000       12.0110           0
       949 MEMB     7        DOPC     H13X     HAL2     0.900000E-01   1.00800           0
       950 MEMB     7        DOPC     H13Y     HAL2     0.900000E-01   1.00800           0
       951 MEMB     7        DOPC     C314     CTL2    -0.180000       12.0110           0
       952 MEMB     7        DOPC     H14X     HAL2     0.900000E-01   1.00800           0
       953 MEMB     7        DOPC     H14Y     HAL2     0.900000E-01   1.00800           0
       954 MEMB     7        DOPC     C315     CTL2    -0.180000       12.0110           0
       955 MEMB     7        DOPC     H15X     HAL2     0.900000E-01   1.00800           0
       956 MEMB     7        DOPC     H15Y     HAL2     0.900000E-01   1.00800           0
       957 MEMB     7        DOPC     C316     CTL2    -0.180000       12.0110           0
       958 MEMB     7        DOPC     H16X     HAL2     0.900000E-01   1.00800           0
       959 MEMB     7        DOPC     H16Y     HAL2     0.900000E-01   1.00800           0
       960 MEMB     7        DOPC     C317     CTL2    -0.180000       12.0110           0
       961 MEMB     7        DOPC     H17X     HAL2     0.900000E-01   1.00800           0
       962 MEMB     7        DOPC     H17Y     HAL2     0.900000E-01   1.00800           0
       963 MEMB     7        DOPC     C318     CTL3    -0.270000       12.0110           0
       964 MEMB     7        DOPC     H18X     HAL3     0.900000E-01   1.00800           0
       965 MEMB     7        DOPC     H18Y     HAL3     0.900000E-01   1.00800           0
       966 MEMB     7        DOPC     H18Z     HAL3     0.900000E-01   1.00800           0
       967 MEMB     8        DOPC     N        NTL     -0.600000       14.0070           0
       968 MEMB     8        DOPC     C12      CTL2    -0.100000       12.0110           0
       969 MEMB     8        DOPC     H12A     HL       0.250000       1.00800           0
       970 MEMB     8        DOPC     H12B     HL       0.250000       1.00800           0
       971 MEMB     8        DOPC     C13      CTL5    -0.350000       12.0110           0
       972 MEMB     8        DOPC     H13A     HL       0.250000       1.00800           0
       973 MEMB     8        DOPC     H13B     HL       0.250000       1.00800           0
       974 MEMB     8        DOPC     H13C     HL       0.250000       1.00800           0
       975 MEMB     8        DOPC     C14      CTL5    -0.350000       12.0110           0
       976 MEMB     8        DOPC     H14A     HL       0.250000       1.00800           0
       977 MEMB     8        DOPC     H14B     HL       0.250000       1.00800           0
       978 MEMB     8        DOPC     H14C     HL       0.250000       1.00800           0
       979 MEMB     8        DOPC     C15      CTL5    -0.350000       12.0110           0
       980 MEMB     8        DOPC     H15A     HL       0.250000       1.00800           0
       981 MEMB     8        DOPC     H15B     HL       0.250000       1.00800           0
       982 MEMB     8        DOPC     H15C     HL       0.250000       1.00800           0
       983 MEMB     8        DOPC     C11      CTL2    -0.800000E-01   12.0110           0
       984 MEMB     8        DOPC     H11A     HAL2     0.900000E-01   1.00800           0
       985 MEMB     8        DOPC     H11B     HAL2     0.900000E-01   1.00800           0
       986 MEMB     8        DOPC     P        PL        1.50000       30.9740           0
       987 MEMB     8        DOPC     O13      O2L     -0.780000       15.9994           0
       988 MEMB     8        DOPC     O14      O2L     -0.780000       15.9994           0
       989 MEMB     8        DOPC     O12      OSLP    -0.570000       15.9994           0
       990 MEMB     8        DOPC     O11      OSLP    -0.570000       15.9994           0
       991 MEMB     8        DOPC     C1       CTL2    -0.800000E-01   12.0110           0
       992 MEMB     8        DOPC     HA       HAL2     0.900000E-01   1.00800           0
       993 MEMB     8        DOPC     HB       HAL2     0.900000E-01   1.00800           0
       994 MEMB     8        DOPC     C2       CTL1     0.170000       12.0110           0
       995 MEMB     8        DOPC     HS       HAL1     0.900000E-01   1.00800           0
       996 MEMB     8        DOPC     O21      OSL     -0.490000       15.9994           0
       997 MEMB     8        DOPC     C21      CL       0.900000       12.0110           0
       998 MEMB     8        DOPC     O22      OBL     -0.630000       15.9994           0
       999 MEMB     8        DOPC     C22      CTL2    -0.220000       12.0110           0
      1000 MEMB     8        DOPC     H2R      HAL2     0.900000E-01   1.00800           0
      1001 MEMB     8        DOPC     H2S      HAL2     0.900000E-01   1.00800           0
      1002 MEMB     8        DOPC     C3       CTL2     0.800000E-01   12.0110           0
      1003 MEMB     8        DOPC     HX       HAL2     0.900000E-01   1.00800           0
      1004 MEMB     8        DOPC     HY       HAL2     0.900000E-01   1.00800           0
      1005 MEMB     8        DOPC     O31      OSL     -0.490000       15.9994           0
      1006 MEMB     8        DOPC     C31      CL       0.900000       12.0110           0
      1007 MEMB     8        DOPC     O32      OBL     -0.630000       15.9994           0
      1008 MEMB     8        DOPC     C32      CTL2    -0.220000       12.0110           0
      1009 MEMB     8        DOPC     H2X      HAL2     0.900000E-01   1.00800           0
      1010 MEMB     8        DOPC     H2Y      HAL2     0.900000E-01   1.00800           0
      1011 MEMB     8        DOPC     C23      CTL2    -0.180000       12.0110           0
      1012 MEMB     8        DOPC     H3R      HAL2     0.900000E-01   1.00800           0
      1013 MEMB     8        DOPC     H3S      HAL2     0.900000E-01   1.00800           0
      1014 MEMB     8        DOPC     C24      CTL2    -0.180000       12.0110           0
      1015 MEMB     8        DOPC     H4R      HAL2     0.900000E-01   1.00800           0
      1016 MEMB     8        DOPC     H4S      HAL2     0.900000E-01   1.00800           0
      1017 MEMB     8        DOPC     C25      CTL2    -0.180000       12.0110           0
      1018 MEMB     8        DOPC     H5R      HAL2     0.900000E-01   1.00800           0
      1019 MEMB     8        DOPC     H5S      HAL2     0.900000E-01   1.00800           0
      1020 MEMB     8        DOPC     C26      CTL2    -0.180000       12.0110           0
      1021 MEMB     8        DOPC     H6R      HAL2     0.900000E-01   1.00800           0
      1022 MEMB     8        DOPC     H6S      HAL2     0.900000E-01   1.00800           0
      1023 MEMB     8        DOPC     C27      CTL2    -0.180000       12.0110           0
      1024 MEMB     8        DOPC     H7R      HAL2     0.900000E-01   1.00800           0
      1025 MEMB     8        DOPC     H7S      HAL2     0.900000E-01   1.00800           0
      1026 MEMB     8        DOPC     C28      CTL2    -0.180000       12.0110           0
      1027 MEMB     8        DOPC     H8R      HAL2     0.900000E-01   1.00800           0
      1028 MEMB     8        DOPC     H8S      HAL2     0.900000E-01   1.00800           0
      1029 MEMB     8        DOPC     C29      CEL1    -0.150000       12.0110           0
      1030 MEMB     8        DOPC     H9R      HEL1     0.150000       1.00800           0
      1031 MEMB     8        DOPC     C210     CEL1    -0.150000       12.0110           0
      1032 MEMB     8        DOPC     H10R     HEL1     0.150000       1.00800           0
      1033 MEMB     8        DOPC     C211     CTL2    -0.180000       12.0110           0
      1034 MEMB     8        DOPC     H11R     HAL2     0.900000E-01   1.00800           0
      1035 MEMB     8        DOPC     H11S     HAL2     0.900000E-01   1.00800           0
      1036 MEMB     8        DOPC     C212     CTL2    -0.180000       12.0110           0
      1037 MEMB     8        DOPC     H12R     HAL2     0.900000E-01   1.00800           0
      1038 MEMB     8        DOPC     H12S     HAL2     0.900000E-01   1.00800           0
      1039 MEMB     8        DOPC     C213     CTL2    -0.180000       12.0110           0
      1040 MEMB     8        DOPC     H13R     HAL2     0.900000E-01   1.00800           0
      1041 MEMB     8        DOPC     H13S     HAL2     0.900000E-01   1.00800           0
      1042 MEMB     8        DOPC     C214     CTL2    -0.180000       12.0110           0
      1043 MEMB     8        DOPC     H14R     HAL2     0.900000E-01   1.00800           0
      1044 MEMB     8        DOPC     H14S     HAL2     0.900000E-01   1.00800           0
      1045 MEMB     8        DOPC     C215     CTL2    -0.180000       12.0110           0
      1046 MEMB     8        DOPC     H15R     HAL2     0.900000E-01   1.00800           0
      1047 MEMB     8        DOPC     H15S     HAL2     0.900000E-01   1.00800           0
      1048 MEMB     8        DOPC     C216     CTL2    -0.180000       12.0110           0
      1049 MEMB     8        DOPC     H16R     HAL2     0.900000E-01   1.00800           0
      1050 MEMB     8        DOPC     H16S     HAL2     0.900000E-01   1.00800           0
      1051 MEMB     8        DOPC     C217     CTL2    -0.180000       12.0110           0
      1052 MEMB     8        DOPC     H17R     HAL2     0.900000E-01   1.00800           0
      1053 MEMB     8        DOPC     H17S     HAL2     0.900000E-01   1.00800           0
      1054 MEMB     8        DOPC     C218     CTL3    -0.270000       12.0110           0
      1055 MEMB     8        DOPC     H18R     HAL3     0.900000E-01   1.00800           0
      1056 MEMB     8        DOPC     H18S     HAL3     0.900000E-01   1.00800           0
      1057 MEMB     8        DOPC     H18T     HAL3     0.900000E-01   1.00800           0
      1058 MEMB     8        DOPC     C33      CTL2    -0.180000       12.0110           0
      1059 MEMB     8        DOPC     H3X      HAL2     0.900000E-01   1.00800           0
      1060 MEMB     8        DOPC     H3Y      HAL2     0.900000E-01   1.00800           0
      1061 MEMB     8        DOPC     C34      CTL2    -0.180000       12.0110           0
      1062 MEMB     8        DOPC     H4X      HAL2     0.900000E-01   1.00800           0
      1063 MEMB     8        DOPC     H4Y      HAL2     0.900000E-01   1.00800           0
      1064 MEMB     8        DOPC     C35      CTL2    -0.180000       12.0110           0
      1065 MEMB     8        DOPC     H5X      HAL2     0.900000E-01   1.00800           0
      1066 MEMB     8        DOPC     H5Y      HAL2     0.900000E-01   1.00800           0
      1067 MEMB     8        DOPC     C36      CTL2    -0.180000       12.0110           0
      1068 MEMB     8        DOPC     H6X      HAL2     0.900000E-01   1.00800           0
      1069 MEMB     8        DOPC     H6Y      HAL2     0.900000E-01   1.00800           0
      1070 MEMB     8        DOPC     C37      CTL2    -0.180000       12.0110           0
      1071 MEMB     8        DOPC     H7X      HAL2     0.900000E-01   1.00800           0
      1072 MEMB     8        DOPC     H7Y      HAL2     0.900000E-01   1.00800           0
      1073 MEMB     8        DOPC     C38      CTL2    -0.180000       12.0110           0
      1074 MEMB     8        DOPC     H8X      HAL2     0.900000E-01   1.00800           0
      1075 MEMB     8        DOPC     H8Y      HAL2     0.900000E-01   1.00800           0
      1076 MEMB     8        DOPC     C39      CEL1    -0.150000       12.0110           0
      1077 MEMB     8        DOPC     H9X      HEL1     0.150000       1.00800           0
      1078 MEMB     8        DOPC     C310     CEL1    -0.150000       12.0110           0
      1079 MEMB     8        DOPC     H10X     HEL1     0.150000       1.00800           0
      1080 MEMB     8        DOPC     C311     CTL2    -0.180000       12.0110           0
      1081 MEMB     8        DOPC     H11X     HAL2     0.900000E-01   1.00800           0
      1082 MEMB     8        DOPC     H11Y     HAL2     0.900000E-01   1.00800           0
      1083 MEMB     8        DOPC     C312     CTL2    -0.180000       12.0110           0
      1084 MEMB     8        DOPC     H12X     HAL2     0.900000E-01   1.00800           0
      1085 MEMB     8        DOPC     H12Y     HAL2     0.900000E-01   1.00800           0
      1086 MEMB     8        DOPC     C313     CTL2    -0.180000       12.0110           0
      1087 MEMB     8        DOPC     H13X     HAL2     0.900000E-01   1.00800           0
      1088 MEMB     8        DOPC     H13Y     HAL2     0.900000E-01   1.00800           0
      1089 MEMB     8        DOPC     C314     CTL2    -0.180000       12.0110           0
      1090 MEMB     8        DOPC     H14X     HAL2     0.900000E-01   1.00800           0
      1091 MEMB     8        DOPC     H14Y     HAL2     0.900000E-01   1.00800           0
      1092 MEMB     8        DOPC     C315     CTL2    -0.180000       12.0110           0
      1093 MEMB     8        DOPC     H15X     HAL2     0.900000E-01   1.00800           0
      1094 MEMB     8        DOPC     H15Y     HAL2     0.900000E-01   1.00800           0
      1095 MEMB     8        DOPC     C316     CTL2    -0.180000       12.0110           0
      1096 MEMB     8        DOPC     H16X     HAL2     0.900000E-01   1.00800           0
      1097 MEMB     8        DOPC     H16Y     HAL2     0.900000E-01   1.00800           0
      1098 MEMB     8        DOPC     C317     CTL2    -0.180000       12.0110           0
      1099 MEMB     8        DOPC     H17X     HAL2     0.900000E-01   1.00800           0
      1100 MEMB     8        DOPC     H17Y     HAL2     0.900000E-01   1.00800           0
      1101 MEMB     8        DOPC     C318     CTL3    -0.270000       12.0110           0
      1102 MEMB     8        DOPC     H18X     HAL3     0.900000E-01   1.00800           0
      1103 MEMB     8        DOPC     H18Y     HAL3     0.900000E-01   1.00800           0
      1104 MEMB     8        DOPC     H18Z     HAL3     0.900000E-01   1.00800           0
      1105 MEMB     9        DOPC     N        NTL     -0.600000       14.0070           0
      1106 MEMB     9        DOPC     C12      CTL2    -0.100000       12.0110           0
      1107 MEMB     9        DOPC     H12A     HL       0.250000       1.00800           0
      1108 MEMB     9        DOPC     H12B     HL       0.250000       1.00800           0
      1109 MEMB     9        DOPC     C13      CTL5    -0.350000       12.0110           0
      1110 MEMB     9        DOPC     H13A     HL       0.250000       1.00800           0
      1111 MEMB     9        DOPC     H13B     HL       0.250000       1.00800           0
      1112 MEMB     9        DOPC     H13C     HL       0.250000       1.00800           0
      1113 MEMB     9        DOPC     C14      CTL5    -0.350000       12.0110           0
      1114 MEMB     9        DOPC     H14A     HL       0.250000       1.00800           0
      1115 MEMB     9        DOPC     H14B     HL       0.250000       1.00800           0
      1116 MEMB     9        DOPC     H14C     HL       0.250000       1.00800           0
      1117 MEMB     9        DOPC     C15      CTL5    -0.350000       12.0110           0
      1118 MEMB     9        DOPC     H15A     HL       0.250000       1.00800           0
      1119 MEMB     9        DOPC     H15B     HL       0.250000       1.00800           0
      1120 MEMB     9        DOPC     H15C     HL       0.250000       1.00800           0
      1121 MEMB     9        DOPC     C11      CTL2    -0.800000E-01   12.0110           0
      1122 MEMB     9        DOPC     H11A     HAL2     0.900000E-01   1.00800           0
      1123 MEMB     9        DOPC     H11B     HAL2     0.900000E-01   1.00800           0
      1124 MEMB     9        DOPC     P        PL        1.50000       30.9740           0
      1125 MEMB     9        DOPC     O13      O2L     -0.780000       15.9994           0
      1126 MEMB     9        DOPC     O14      O2L     -0.780000       15.9994           0
      1127 MEMB     9        DOPC     O12      OSLP    -0.570000       15.9994           0
      1128 MEMB     9        DOPC     O11      OSLP    -0.570000       15.9994           0
      1129 MEMB     9        DOPC     C1       CTL2    -0.800000E-01   12.0110           0
      1130 MEMB     9        DOPC     HA       HAL2     0.900000E-01   1.00800           0
      1131 MEMB     9        DOPC     HB       HAL2     0.900000E-01   1.00800           0
      1132 MEMB     9        DOPC     C2       CTL1     0.170000       12.0110           0
      1133 MEMB     9        DOPC     HS       HAL1     0.900000E-01   1.00800           0
      1134 MEMB     9        DOPC     O21      OSL     -0.490000       15.9994           0
      1135 MEMB     9        DOPC     C21      CL       0.900000       12.0110           0
      1136 MEMB     9        DOPC     O22      OBL     -0.630000       15.9994           0
      1137 MEMB     9        DOPC     C22      CTL2    -0.220000       12.0110           0
      1138 MEMB     9        DOPC     H2R      HAL2     0.900000E-01   1.00800           0
      1139 MEMB     9        DOPC     H2S      HAL2     0.900000E-01   1.00800           0
      1140 MEMB     9        DOPC     C3       CTL2     0.800000E-01   12.0110           0
      1141 MEMB     9        DOPC     HX       HAL2     0.900000E-01   1.00800           0
      1142 MEMB     9        DOPC     HY       HAL2     0.900000E-01   1.00800           0
      1143 MEMB     9        DOPC     O31      OSL     -0.490000       15.9994           0
      1144 MEMB     9        DOPC     C31      CL       0.900000       12.0110           0
      1145 MEMB     9        DOPC     O32      OBL     -0.630000       15.9994           0
      1146 MEMB     9        DOPC     C32      CTL2    -0.220000       12.0110           0
      1147 MEMB     9        DOPC     H2X      HAL2     0.900000E-01   1.00800           0
      1148 MEMB     9        DOPC     H2Y      HAL2     0.900000E-01   1.00800           0
      1149 MEMB     9        DOPC     C23      CTL2    -0.180000       12.0110           0
      1150 MEMB     9        DOPC     H3R      HAL2     0.900000E-01   1.00800           0
      1151 MEMB     9        DOPC     H3S      HAL2     0.900000E-01   1.00800           0
      1152 MEMB     9        DOPC     C24      CTL2    -0.180000       12.0110           0
      1153 MEMB     9        DOPC     H4R      HAL2     0.900000E-01   1.00800           0
      1154 MEMB     9        DOPC     H4S      HAL2     0.900000E-01   1.00800           0
      1155 MEMB     9        DOPC     C25      CTL2    -0.180000       12.0110           0
      1156 MEMB     9        DOPC     H5R      HAL2     0.900000E-01   1.00800           0
      1157 MEMB     9        DOPC     H5S      HAL2     0.900000E-01   1.00800           0
      1158 MEMB     9        DOPC     C26      CTL2    -0.180000       12.0110           0
      1159 MEMB     9        DOPC     H6R      HAL2     0.900000E-01   1.00800           0
      1160 MEMB     9        DOPC     H6S      HAL2     0.900000E-01   1.00800           0
      1161 MEMB     9        DOPC     C27      CTL2    -0.180000       12.0110           0
      1162 MEMB     9        DOPC     H7R      HAL2     0.900000E-01   1.00800           0
      1163 MEMB     9        DOPC     H7S      HAL2     0.900000E-01   1.00800           0
      1164 MEMB     9        DOPC     C28      CTL2    -0.180000       12.0110           0
      1165 MEMB     9        DOPC     H8R      HAL2     0.900000E-01   1.00800           0
      1166 MEMB     9        DOPC     H8S      HAL2     0.900000E-01   1.00800           0
      1167 MEMB     9        DOPC     C29      CEL1    -0.150000       12.0110           0
      1168 MEMB     9        DOPC     H9R      HEL1     0.150000       1.00800           0
      1169 MEMB     9        DOPC     C210     CEL1    -0.150000       12.0110           0
      1170 MEMB     9        DOPC     H10R     HEL1     0.150000       1.00800           0
      1171 MEMB     9        DOPC     C211     CTL2    -0.180000       12.0110           0
      1172 MEMB     9        DOPC     H11R     HAL2     0.900000E-01   1.00800           0
      1173 MEMB     9        DOPC     H11S     HAL2     0.900000E-01   1.00800           0
      1174 MEMB     9        DOPC     C212     CTL2    -0.180000       12.0110           0
      1175 MEMB     9        DOPC     H12R     HAL2     0.900000E-01   1.00800           0
      1176 MEMB     9        DOPC     H12S     HAL2     0.900000E-01   1.00800           0
      1177 MEMB     9        DOPC     C213     CTL2    -0.180000       12.0110           0
      1178 MEMB     9        DOPC     H13R     HAL2     0.900000E-01   1.00800           0
      1179 MEMB     9        DOPC     H13S     HAL2     0.900000E-01   1.00800           0
      1180 MEMB     9        DOPC     C214     CTL2    -0.180000       12.0110           0
      1181 MEMB     9        DOPC     H14R     HAL2     0.900000E-01   1.00800           0
      1182 MEMB     9        DOPC     H14S     HAL2     0.900000E-01   1.00800           0
      1183 MEMB     9        DOPC     C215     CTL2    -0.180000       12.0110           0
      1184 MEMB     9        DOPC     H15R     HAL2     0.900000E-01   1.00800           0
      1185 MEMB     9        DOPC     H15S     HAL2     0.900000E-01   1.00800           0
      1186 MEMB     9        DOPC     C216     CTL2    -0.180000       12.0110           0
      1187 MEMB     9        DOPC     H16R     HAL2     0.900000E-01   1.00800           0
      1188 MEMB     9        DOPC     H16S     HAL2     0.900000E-01   1.00800           0
      1189 MEMB     9        DOPC     C217     CTL2    -0.180000       12.0110           0
      1190 MEMB     9        DOPC     H17R     HAL2     0.900000E-01   1.00800           0
      1191 MEMB     9        DOPC     H17S     HAL2     0.900000E-01   1.00800           0
      1192 MEMB     9        DOPC     C218     CTL3    -0.270000       12.0110           0
      1193 MEMB     9        DOPC     H18R     HAL3     0.900000E-01   1.00800           0
      1194 MEMB     9        DOPC     H18S     HAL3     0.900000E-01   1.00800           0
      1195 MEMB     9        DOPC     H18T     HAL3     0.900000E-01   1.00800           0
      1196 MEMB     9        DOPC     C33      CTL2    -0.180000       12.0110           0
      1197 MEMB     9        DOPC     H3X      HAL2     0.900000E-01   1.00800           0
      1198 MEMB     9        DOPC     H3Y      HAL2     0.900000E-01   1.00800           0
      1199 MEMB     9        DOPC     C34      CTL2    -0.180000       12.0110           0
      1200 MEMB     9        DOPC     H4X      HAL2     0.900000E-01   1.00800           0
      1201 MEMB     9        DOPC     H4Y      HAL2     0.900000E-01   1.00800           0
      1202 MEMB     9        DOPC     C35      CTL2    -0.180000       12.0110           0
      1203 MEMB     9        DOPC     H5X      HAL2     0.900000E-01   1.00800           0
      1204 MEMB     9        DOPC     H5Y      HAL2     0.900000E-01   1.00800           0
      1205 MEMB     9        DOPC     C36      CTL2    -0.180000       12.0110           0
      1206 MEMB     9        DOPC     H6X      HAL2     0.900000E-01   1.00800           0
      1207 MEMB     9        DOPC     H6Y      HAL2     0.900000E-01   1.00800           0
      1208 MEMB     9        DOPC     C37      CTL2    -0.180000       12.0110           0
      1209 MEMB     9        DOPC     H7X      HAL2     0.900000E-01   1.00800           0
      1210 MEMB     9        DOPC     H7Y      HAL2     0.900000E-01   1.00800           0
      1211 MEMB     9        DOPC     C38      CTL2    -0.180000       12.0110           0
      1212 MEMB     9        DOPC     H8X      HAL2     0.900000E-01   1.00800           0
      1213 MEMB     9        DOPC     H8Y      HAL2     0.900000E-01   1.00800           0
      1214 MEMB     9        DOPC     C39      CEL1    -0.150000       12.0110           0
      1215 MEMB     9        DOPC     H9X      HEL1     0.150000       1.00800           0
      1216 MEMB     9        DOPC     C310     CEL1    -0.150000       12.0110           0
      1217 MEMB     9        DOPC     H10X     HEL1     0.150000       1.00800           0
      1218 MEMB     9        DOPC     C311     CTL2    -0.180000       12.0110           0
      1219 MEMB     9        DOPC     H11X     HAL2     0.900000E-01   1.00800           0
      1220 MEMB     9        DOPC     H11Y     HAL2     0.900000E-01   1.00800           0
      1221 MEMB     9        DOPC     C312     CTL2    -0.180000       12.0110           0
      1222 MEMB     9        DOPC     H12X     HAL2     0.900000E-01   1.00800           0
      1223 MEMB     9        DOPC     H12Y     HAL2     0.900000E-01   1.00800           0
      1224 MEMB     9        DOPC     C313     CTL2    -0.180000       12.0110           0
      1225 MEMB     9        DOPC     H13X     HAL2     0.900000E-01   1.00800           0
      1226 MEMB     9        DOPC     H13Y     HAL2     0.900000E-01   1.00800           0
      1227 MEMB     9        DOPC     C314     CTL2    -0.180000       12.0110           0
      1228 MEMB     9        DOPC     H14X     HAL2     0.900000E-01   1.00800           0
      1229 MEMB     9        DOPC     H14Y     HAL2     0.900000E-01   1.00800           0
      1230 MEMB     9        DOPC     C315     CTL2    -0.180000       12.0110           0
      1231 MEMB     9        DOPC     H15X     HAL2     0.900000E-01   1.00800           0
      1232 MEMB     9        DOPC     H15Y     HAL2     0.900000E-01   1.00800           0
      1233 MEMB     9        DOPC     C316     CTL2    -0.180000       12.0110           0
      1234 MEMB     9        DOPC     H16X     HAL2     0.900000E-01   1.00800           0
      1235 MEMB     9        DOPC     H16Y     HAL2     0.900000E-01   1.00800           0
      1236 MEMB     9        DOPC     C317     CTL2    -0.180000       12.0110           0
      1237 MEMB     9        DOPC     H17X     HAL2     0.900000E-01   1.00800           0
      1238 MEMB     9        DOPC     H17Y     HAL2     0.900000E-01   1.00800           0
      1239 MEMB     9        DOPC     C318     CTL3    -0.270000       12.0110           0
      1240 MEMB     9        DOPC     H18X     HAL3     0.900000E-01   1.00800           0
      1241 MEMB     9        DOPC     H18Y     HAL3     0.900000E-01   1.00800           0
      1242 MEMB     9        DOPC     H18Z     HAL3     0.900000E-01   1.00800           0
      1243 MEMB     10       DOPC     N        NTL     -0.600000       14.0070           0
      1244 MEMB     10       DOPC     C12      CTL2    -0.100000       12.0110           0
      1245 MEMB     10       DOPC     H12A     HL       0.250000       1.00800           0
      1246 MEMB     10       DOPC     H12B     HL       0.250000       1.00800           0
      1247 MEMB     10       DOPC     C13      CTL5    -0.350000       12.0110           0
      1248 MEMB     10       DOPC     H13A     HL       0.250000       1.00800           0
      1249 MEMB     10       DOPC     H13B     HL       0.250000       1.00800           0
      1250 MEMB     10       DOPC     H13C     HL       0.250000       1.00800           0
      1251 MEMB     10       DOPC     C14      CTL5    -0.350000       12.0110           0
      1252 MEMB     10       DOPC     H14A     HL       0.250000       1.00800           0
      1253 MEMB     10       DOPC     H14B     HL       0.250000       1.00800           0
      1254 MEMB     10       DOPC     H14C     HL       0.250000       1.00800           0
      1255 MEMB     10       DOPC     C15      CTL5    -0.350000       12.0110           0
      1256 MEMB     10       DOPC     H15A     HL       0.250000       1.00800           0
      1257 MEMB     10       DOPC     H15B     HL       0.250000       1.00800           0
      1258 MEMB     10       DOPC     H15C     HL       0.250000       1.00800           0
      1259 MEMB     10       DOPC     C11      CTL2    -0.800000E-01   12.0110           0
      1260 MEMB     10       DOPC     H11A     HAL2     0.900000E-01   1.00800           0
      1261 MEMB     10       DOPC     H11B     HAL2     0.900000E-01   1.00800           0
      1262 MEMB     10       DOPC     P        PL        1.50000       30.9740           0
      1263 MEMB     10       DOPC     O13      O2L     -0.780000       15.9994           0
      1264 MEMB     10       DOPC     O14      O2L     -0.780000       15.9994           0
      1265 MEMB     10       DOPC     O12      OSLP    -0.570000       15.9994           0
      1266 MEMB     10       DOPC     O11      OSLP    -0.570000       15.9994           0
      1267 MEMB     10       DOPC     C1       CTL2    -0.800000E-01   12.0110           0
      1268 MEMB     10       DOPC     HA       HAL2     0.900000E-01   1.00800           0
      1269 MEMB     10       DOPC     HB       HAL2     0.900000E-01   1.00800           0
      1270 MEMB     10       DOPC     C2       CTL1     0.170000       12.0110           0
      1271 MEMB     10       DOPC     HS       HAL1     0.900000E-01   1.00800           0
      1272 MEMB     10       DOPC     O21      OSL     -0.490000       15.9994           0
      1273 MEMB     10       DOPC     C21      CL       0.900000       12.0110           0
      1274 MEMB     10       DOPC     O22      OBL     -0.630000       15.9994           0
      1275 MEMB     10       DOPC     C22      CTL2    -0.220000       12.0110           0
      1276 MEMB     10       DOPC     H2R      HAL2     0.900000E-01   1.00800           0
      1277 MEMB     10       DOPC     H2S      HAL2     0.900000E-01   1.00800           0
      1278 MEMB     10       DOPC     C3       CTL2     0.800000E-01   12.0110           0
      1279 MEMB     10       DOPC     HX       HAL2     0.900000E-01   1.00800           0
      1280 MEMB     10       DOPC     HY       HAL2     0.900000E-01   1.00800           0
      1281 MEMB     10       DOPC     O31      OSL     -0.490000       15.9994           0
      1282 MEMB     10       DOPC     C31      CL       0.900000       12.0110           0
      1283 MEMB     10       DOPC     O32      OBL     -0.630000       15.9994           0
      1284 MEMB     10       DOPC     C32      CTL2    -0.220000       12.0110           0
      1285 MEMB     10       DOPC     H2X      HAL2     0.900000E-01   1.00800           0
      1286 MEMB     10       DOPC     H2Y      HAL2     0.900000E-01   1.00800           0
      1287 MEMB     10       DOPC     C23      CTL2    -0.180000       12.0110           0
      1288 MEMB     10       DOPC     H3R      HAL2     0.900000E-01   1.00800           0
      1289 MEMB     10       DOPC     H3S      HAL2     0.900000E-01   1.00800           0
      1290 MEMB     10       DOPC     C24      CTL2    -0.180000       12.0110           0
      1291 MEMB     10       DOPC     H4R      HAL2     0.900000E-01   1.00800           0
      1292 MEMB     10       DOPC     H4S      HAL2     0.900000E-01   1.00800           0
      1293 MEMB     10       DOPC     C25      CTL2    -0.180000       12.0110           0
      1294 MEMB     10       DOPC     H5R      HAL2     0.900000E-01   1.00800           0
      1295 MEMB     10       DOPC     H5S      HAL2     0.900000E-01   1.00800           0
      1296 MEMB     10       DOPC     C26      CTL2    -0.180000       12.0110           0
      1297 MEMB     10       DOPC     H6R      HAL2     0.900000E-01   1.00800           0
      1298 MEMB     10       DOPC     H6S      HAL2     0.900000E-01   1.00800           0
      1299 MEMB     10       DOPC     C27      CTL2    -0.180000       12.0110           0
      1300 MEMB     10       DOPC     H7R      HAL2     0.900000E-01   1.00800           0
      1301 MEMB     10       DOPC     H7S      HAL2     0.900000E-01   1.00800           0
      1302 MEMB     10       DOPC     C28      CTL2    -0.180000       12.0110           0
      1303 MEMB     10       DOPC     H8R      HAL2     0.900000E-01   1.00800           0
      1304 MEMB     10       DOPC     H8S      HAL2     0.900000E-01   1.00800           0
      1305 MEMB     10       DOPC     C29      CEL1    -0.150000       12.0110           0
      1306 MEMB     10       DOPC     H9R      HEL1     0.150000       1.00800           0
      1307 MEMB     10       DOPC     C210     CEL1    -0.150000       12.0110           0
      1308 MEMB     10       DOPC     H10R     HEL1     0.150000       1.00800           0
      1309 MEMB     10       DOPC     C211     CTL2    -0.180000       12.0110           0
      1310 MEMB     10       DOPC     H11R     HAL2     0.900000E-01   1.00800           0
      1311 MEMB     10       DOPC     H11S     HAL2     0.900000E-01   1.00800           0
      1312 MEMB     10       DOPC     C212     CTL2    -0.180000       12.0110           0
      1313 MEMB     10       DOPC     H12R     HAL2     0.900000E-01   1.00800           0
      1314 MEMB     10       DOPC     H12S     HAL2     0.900000E-01   1.00800           0
      1315 MEMB     10       DOPC     C213     CTL2    -0.180000       12.0110           0
      1316 MEMB     10       DOPC     H13R     HAL2     0.900000E-01   1.00800           0
      1317 MEMB     10       DOPC     H13S     HAL2     0.900000E-01   1.00800           0
      1318 MEMB     10       DOPC     C214     CTL2    -0.180000       12.0110           0
      1319 MEMB     10       DOPC     H14R     HAL2     0.900000E-01   1.00800           0
      1320 MEMB     10       DOPC     H14S     HAL2     0.900000E-01   1.00800           0
      1321 MEMB     10       DOPC     C215     CTL2    -0.180000       12.0110           0
      1322 MEMB     10       DOPC     H15R     HAL2     0.900000E-01   1.00800           0
      1323 MEMB     10       DOPC     H15S     HAL2     0.900000E-01   1.00800           0
      1324 MEMB     10       DOPC     C216     CTL2    -0.180000       12.0110           0
      1325 MEMB     10       DOPC     H16R     HAL2     0.900000E-01   1.00800           0
      1326 MEMB     10       DOPC     H16S     HAL2     0.900000E-01   1.00800           0
      1327 MEMB     10       DOPC     C217     CTL2    -0.180000       12.0110           0
      1328 MEMB     10       DOPC     H17R     HAL2     0.900000E-01   1.00800           0
      1329 MEMB     10       DOPC     H17S     HAL2     0.900000E-01   1.00800           0
      1330 MEMB     10       DOPC     C218     CTL3    -0.270000       12.0110           0
      1331 MEMB     10       DOPC     H18R     HAL3     0.900000E-01   1.00800           0
      1332 MEMB     10       DOPC     H18S     HAL3     0.900000E-01   1.00800           0
      1333 MEMB     10       DOPC     H18T     HAL3     0.900000E-01   1.00800           0
      1334 MEMB     10       DOPC     C33      CTL2    -0.180000       12.0110           0
      1335 MEMB     10       DOPC     H3X      HAL2     0.900000E-01   1.00800           0
      1336 MEMB     10       DOPC     H3Y      HAL2     0.900000E-01   1.00800           0
      1337 MEMB     10       DOPC     C34      CTL2    -0.180000       12.0110           0
      1338 MEMB     10       DOPC     H4X      HAL2     0.900000E-01   1.00800           0
      1339 MEMB     10       DOPC     H4Y      HAL2     0.900000E-01   1.00800           0
      1340 MEMB     10       DOPC     C35      CTL2    -0.180000       12.0110           0
      1341 MEMB     10       DOPC     H5X      HAL2     0.900000E-01   1.00800           0
      1342 MEMB     10       DOPC     H5Y      HAL2     0.900000E-01   1.00800           0
      1343 MEMB     10       DOPC     C36      CTL2    -0.180000       12.0110           0
      1344 MEMB     10       DOPC     H6X      HAL2     0.900000E-01   1.00800           0
      1345 MEMB     10       DOPC     H6Y      HAL2     0.900000E-01   1.00800           0
      1346 MEMB     10       DOPC     C37      CTL2    -0.180000       12.0110           0
      1347 MEMB     10       DOPC     H7X      HAL2     0.900000E-01   1.00800           0
      1348 MEMB     10       DOPC     H7Y      HAL2     0.900000E-01   1.00800           0
      1349 MEMB     10       DOPC     C38      CTL2    -0.180000       12.0110           0
      1350 MEMB     10       DOPC     H8X      HAL2     0.900000E-01   1.00800           0
      1351 MEMB     10       DOPC     H8Y      HAL2     0.900000E-01   1.00800           0
      1352 MEMB     10       DOPC     C39      CEL1    -0.150000       12.0110           0
      1353 MEMB     10       DOPC     H9X      HEL1     0.150000       1.00800           0
      1354 MEMB     10       DOPC     C310     CEL1    -0.150000       12.0110           0
      1355 MEMB     10       DOPC     H10X     HEL1     0.150000       1.00800           0
      1356 MEMB     10       DOPC     C311     CTL2    -0.180000       12.0110           0
      1357 MEMB     10       DOPC     H11X     HAL2     0.900000E-01   1.00800           0
      1358 MEMB     10       DOPC     H11Y     HAL2     0.900000E-01   1.00800           0
      1359 MEMB     10       DOPC     C312     CTL2    -0.180000       12.0110           0
      1360 MEMB     10       DOPC     H12X     HAL2     0.900000E-01   1.00800           0
      1361 MEMB     10       DOPC     H12Y     HAL2     0.900000E-01   1.00800           0
      1362 MEMB     10       DOPC     C313     CTL2    -0.180000       12.0110           0
      1363 MEMB     10       DOPC     H13X     HAL2     0.900000E-01   1.00800           0
      1364 MEMB     10       DOPC     H13Y     HAL2     0.900000E-01   1.00800           0
      1365 MEMB     10       DOPC     C314     CTL2    -0.180000       12.0110           0
      1366 MEMB     10       DOPC     H14X     HAL2     0.900000E-01   1.00800           0
      1367 MEMB     10       DOPC     H14Y     HAL2     0.900000E-01   1.00800           0
      1368 MEMB     10       DOPC     C315     CTL2    -0.180000       12.0110           0
      1369 MEMB     10       DOPC     H15X     HAL2     0.900000E-01   1.00800           0
      1370 MEMB     10       DOPC     H15Y     HAL2     0.900000E-01   1.00800           0
      1371 MEMB     10       DOPC     C316     CTL2    -0.180000       12.0110           0
      1372 MEMB     10       DOPC     H16X     HAL2     0.900000E-01   1.00800           0
      1373 MEMB     10       DOPC     H16Y     HAL2     0.900000E-01   1.00800           0
      1374 MEMB     10       DOPC     C317     CTL2    -0.180000       12.0110           0
      1375 MEMB     10       DOPC     H17X     HAL2     0.900000E-01   1.00800           0
      1376 MEMB     10       DOPC     H17Y     HAL2     0.900000E-01   1.00800           0
      1377 MEMB     10       DOPC     C318     CTL3    -0.270000       12.0110           0
      1378 MEMB     10       DOPC     H18X     HAL3     0.900000E-01   1.00800           0
      1379 MEMB     10       DOPC     H18Y     HAL3     0.900000E-01   1.00800           0
      1380 MEMB     10       DOPC     H18Z     HAL3     0.900000E-01   1.00800           0
      1381 MEMB     11       DOPC     N        NTL     -0.600000       14.0070           0
      1382 MEMB     11       DOPC     C12      CTL2    -0.100000       12.0110           0
      1383 MEMB     11       DOPC     H12A     HL       0.250000       1.00800           0
      1384 MEMB     11       DOPC     H12B     HL       0.250000       1.00800           0
      1385 MEMB     11       DOPC     C13      CTL5    -0.350000       12.0110           0
      1386 MEMB     11       DOPC     H13A     HL       0.250000       1.00800           0
      1387 MEMB     11       DOPC     H13B     HL       0.250000       1.00800           0
      1388 MEMB     11       DOPC     H13C     HL       0.250000       1.00800           0
      1389 MEMB     11       DOPC     C14      CTL5    -0.350000       12.0110           0
      1390 MEMB     11       DOPC     H14A     HL       0.250000       1.00800           0
      1391 MEMB     11       DOPC     H14B     HL       0.250000       1.00800           0
      1392 MEMB     11       DOPC     H14C     HL       0.250000       1.00800           0
      1393 MEMB     11       DOPC     C15      CTL5    -0.350000       12.0110           0
      1394 MEMB     11       DOPC     H15A     HL       0.250000       1.00800           0
      1395 MEMB     11       DOPC     H15B     HL       0.250000       1.00800           0
      1396 MEMB     11       DOPC     H15C     HL       0.250000       1.00800           0
      1397 MEMB     11       DOPC     C11      CTL2    -0.800000E-01   12.0110           0
      1398 MEMB     11       DOPC     H11A     HAL2     0.900000E-01   1.00800           0
      1399 MEMB     11       DOPC     H11B     HAL2     0.900000E-01   1.00800           0
      1400 MEMB     11       DOPC     P        PL        1.50000       30.9740           0
      1401 MEMB     11       DOPC     O13      O2L     -0.780000       15.9994           0
      1402 MEMB     11       DOPC     O14      O2L     -0.780000       15.9994           0
      1403 MEMB     11       DOPC     O12      OSLP    -0.570000       15.9994           0
      1404 MEMB     11       DOPC     O11      OSLP    -0.570000       15.9994           0
      1405 MEMB     11       DOPC     C1       CTL2    -0.800000E-01   12.0110           0
      1406 MEMB     11       DOPC     HA       HAL2     0.900000E-01   1.00800           0
      1407 MEMB     11       DOPC     HB       HAL2     0.900000E-01   1.00800           0
      1408 MEMB     11       DOPC     C2       CTL1     0.170000       12.0110           0
      1409 MEMB     11       DOPC     HS       HAL1     0.900000E-01   1.00800           0
      1410 MEMB     11       DOPC     O21      OSL     -0.490000       15.9994           0
      1411 MEMB     11       DOPC     C21      CL       0.900000       12.0110           0
      1412 MEMB     11       DOPC     O22      OBL     -0.630000       15.9994           0
      1413 MEMB     11       DOPC     C22      CTL2    -0.220000       12.0110           0
      1414 MEMB     11       DOPC     H2R      HAL2     0.900000E-01   1.00800           0
      1415 MEMB     11       DOPC     H2S      HAL2     0.900000E-01   1.00800           0
      1416 MEMB     11       DOPC     C3       CTL2     0.800000E-01   12.0110           0
      1417 MEMB     11       DOPC     HX       HAL2     0.900000E-01   1.00800           0
      1418 MEMB     11       DOPC     HY       HAL2     0.900000E-01   1.00800           0
      1419 MEMB     11       DOPC     O31      OSL     -0.490000       15.9994           0
      1420 MEMB     11       DOPC     C31      CL       0.900000       12.0110           0
      1421 MEMB     11       DOPC     O32      OBL     -0.630000       15.9994           0
      1422 MEMB     11       DOPC     C32      CTL2    -0.220000       12.0110           0
      1423 MEMB     11       DOPC     H2X      HAL2     0.900000E-01   1.00800           0
      1424 MEMB     11       DOPC     H2Y      HAL2     0.900000E-01   1.00800           0
      1425 MEMB     11       DOPC     C23      CTL2    -0.180000       12.0110           0
      1426 MEMB     11       DOPC     H3R      HAL2     0.900000E-01   1.00800           0
      1427 MEMB     11       DOPC     H3S      HAL2     0.900000E-01   1.00800           0
      1428 MEMB     11       DOPC     C24      CTL2    -0.180000       12.0110           0
      1429 MEMB     11       DOPC     H4R      HAL2     0.900000E-01   1.00800           0
      1430 MEMB     11       DOPC     H4S      HAL2     0.900000E-01   1.00800           0
      1431 MEMB     11       DOPC     C25      CTL2    -0.180000       12.0110           0
      1432 MEMB     11       DOPC     H5R      HAL2     0.900000E-01   1.00800           0
      1433 MEMB     11       DOPC     H5S      HAL2     0.900000E-01   1.00800           0
      1434 MEMB     11       DOPC     C26      CTL2    -0.180000       12.0110           0
      1435 MEMB     11       DOPC     H6R      HAL2     0.900000E-01   1.00800           0
      1436 MEMB     11       DOPC     H6S      HAL2     0.900000E-01   1.00800           0
      1437 MEMB     11       DOPC     C27      CTL2    -0.180000       12.0110           0
      1438 MEMB     11       DOPC     H7R      HAL2     0.900000E-01   1.00800           0
      1439 MEMB     11       DOPC     H7S      HAL2     0.900000E-01   1.00800           0
      1440 MEMB     11       DOPC     C28      CTL2    -0.180000       12.0110           0
      1441 MEMB     11       DOPC     H8R      HAL2     0.900000E-01   1.00800           0
      1442 MEMB     11       DOPC     H8S      HAL2     0.900000E-01   1.00800           0
      1443 MEMB     11       DOPC     C29      CEL1    -0.150000       12.0110           0
      1444 MEMB     11       DOPC     H9R      HEL1     0.150000       1.00800           0
      1445 MEMB     11       DOPC     C210     CEL1    -0.150000       12.0110           0
      1446 MEMB     11       DOPC     H10R     HEL1     0.150000       1.00800           0
      1447 MEMB     11       DOPC     C211     CTL2    -0.180000       12.0110           0
      1448 MEMB     11       DOPC     H11R     HAL2     0.900000E-01   1.00800           0
      1449 MEMB     11       DOPC     H11S     HAL2     0.900000E-01   1.00800           0
      1450 MEMB     11       DOPC     C212     CTL2    -0.180000       12.0110           0
      1451 MEMB     11       DOPC     H12R     HAL2     0.900000E-01   1.00800           0
      1452 MEMB     11       DOPC     H12S     HAL2     0.900000E-01   1.00800           0
      1453 MEMB     11       DOPC     C213     CTL2    -0.180000       12.0110           0
      1454 MEMB     11       DOPC     H13R     HAL2     0.900000E-01   1.00800           0
      1455 MEMB     11       DOPC     H13S     HAL2     0.900000E-01   1.00800           0
      1456 MEMB     11       DOPC     C214     CTL2    -0.180000       12.0110           0
      1457 MEMB     11       DOPC     H14R     HAL2     0.900000E-01   1.00800           0
      1458 MEMB     11       DOPC     H14S     HAL2     0.900000E-01   1.00800           0
      1459 MEMB     11       DOPC     C215     CTL2    -0.180000       12.0110           0
      1460 MEMB     11       DOPC     H15R     HAL2     0.900000E-01   1.00800           0
      1461 MEMB     11       DOPC     H15S     HAL2     0.900000E-01   1.00800           0
      1462 MEMB     11       DOPC     C216     CTL2    -0.180000       12.0110           0
      1463 MEMB     11       DOPC     H16R     HAL2     0.900000E-01   1.00800           0
      1464 MEMB     11       DOPC     H16S     HAL2     0.900000E-01   1.00800           0
      1465 MEMB     11       DOPC     C217     CTL2    -0.180000       12.0110           0
      1466 MEMB     11       DOPC     H17R     HAL2     0.900000E-01   1.00800           0
      1467 MEMB     11       DOPC     H17S     HAL2     0.900000E-01   1.00800           0
      1468 MEMB     11       DOPC     C218     CTL3    -0.270000       12.0110           0
      1469 MEMB     11       DOPC     H18R     HAL3     0.900000E-01   1.00800           0
      1470 MEMB     11       DOPC     H18S     HAL3     0.900000E-01   1.00800           0
      1471 MEMB     11       DOPC     H18T     HAL3     0.900000E-01   1.00800           0
      1472 MEMB     11       DOPC     C33      CTL2    -0.180000       12.0110           0
      1473 MEMB     11       DOPC     H3X      HAL2     0.900000E-01   1.00800           0
      1474 MEMB     11       DOPC     H3Y      HAL2     0.900000E-01   1.00800           0
      1475 MEMB     11       DOPC     C34      CTL2    -0.180000       12.0110           0
      1476 MEMB     11       DOPC     H4X      HAL2     0.900000E-01   1.00800           0
      1477 MEMB     11       DOPC     H4Y      HAL2     0.900000E-01   1.00800           0
      1478 MEMB     11       DOPC     C35      CTL2    -0.180000       12.0110           0
      1479 MEMB     11       DOPC     H5X      HAL2     0.900000E-01   1.00800           0
      1480 MEMB     11       DOPC     H5Y      HAL2     0.900000E-01   1.00800           0
      1481 MEMB     11       DOPC     C36      CTL2    -0.180000       12.0110           0
      1482 MEMB     11       DOPC     H6X      HAL2     0.900000E-01   1.00800           0
      1483 MEMB     11       DOPC     H6Y      HAL2     0.900000E-01   1.00800           0
      1484 MEMB     11       DOPC     C37      CTL2    -0.180000       12.0110           0
      1485 MEMB     11       DOPC     H7X      HAL2     0.900000E-01   1.00800           0
      1486 MEMB     11       DOPC     H7Y      HAL2     0.900000E-01   1.00800           0
      1487 MEMB     11       DOPC     C38      CTL2    -0.180000       12.0110           0
      1488 MEMB     11       DOPC     H8X      HAL2     0.900000E-01   1.00800           0
      1489 MEMB     11       DOPC     H8Y      HAL2     0.900000E-01   1.00800           0
      1490 MEMB     11       DOPC     C39      CEL1    -0.150000       12.0110           0
      1491 MEMB     11       DOPC     H9X      HEL1     0.150000       1.00800           0
      1492 MEMB     11       DOPC     C310     CEL1    -0.150000       12.0110           0
      1493 MEMB     11       DOPC     H10X     HEL1     0.150000       1.00800           0
      1494 MEMB     11       DOPC     C311     CTL2    -0.180000       12.0110           0
      1495 MEMB     11       DOPC     H11X     HAL2     0.900000E-01   1.00800           0
      1496 MEMB     11       DOPC     H11Y     HAL2     0.900000E-01   1.00800           0
      1497 MEMB     11       DOPC     C312     CTL2    -0.180000       12.0110           0
      1498 MEMB     11       DOPC     H12X     HAL2     0.900000E-01   1.00800           0
      1499 MEMB     11       DOPC     H12Y     HAL2     0.900000E-01   1.00800           0
      1500 MEMB     11       DOPC     C313     CTL2    -0.180000       12.0110           0
      1501 MEMB     11       DOPC     H13X     HAL2     0.900000E-01   1.00800           0
      1502 MEMB     11       DOPC     H13Y     HAL2     0.900000E-01   1.00800           0
      1503 MEMB     11       DOPC     C314     CTL2    -0.180000       12.0110           0
      1504 MEMB     11       DOPC     H14X     HAL2     0.900000E-01   1.00800           0
      1505 MEMB     11       DOPC     H14Y     HAL2     0.900000E-01   1.00800           0
      1506 MEMB     11       DOPC     C315     CTL2    -0.180000       12.0110           0
      1507 MEMB     11       DOPC     H15X     HAL2     0.900000E-01   1.00800           0
      1508 MEMB     11       DOPC     H15Y     HAL2     0.900000E-01   1.00800           0
      1509 MEMB     11       DOPC     C316     CTL2    -0.180000       12.0110           0
      1510 MEMB     11       DOPC     H16X     HAL2     0.900000E-01   1.00800           0
      1511 MEMB     11       DOPC     H16Y     HAL2     0.900000E-01   1.00800           0
      1512 MEMB     11       DOPC     C317     CTL2    -0.180000       12.0110           0
      1513 MEMB     11       DOPC     H17X     HAL2     0.900000E-01   1.00800           0
      1514 MEMB     11       DOPC     H17Y     HAL2     0.900000E-01   1.00800           0
      1515 MEMB     11       DOPC     C318     CTL3    -0.270000       12.0110           0
      1516 MEMB     11       DOPC     H18X     HAL3     0.900000E-01   1.00800           0
      1517 MEMB     11       DOPC     H18Y     HAL3     0.900000E-01   1.00800           0
      1518 MEMB     11       DOPC     H18Z     HAL3     0.900000E-01   1.00800           0
      1519 MEMB     12       DOPC     N        NTL     -0.600000       14.0070           0
      1520 MEMB     12       DOPC     C12      CTL2    -0.100000       12.0110           0
      1521 MEMB     12       DOPC     H12A     HL       0.250000       1.00800           0
      1522 MEMB     12       DOPC     H12B     HL       0.250000       1.00800           0
      1523 MEMB     12       DOPC     C13      CTL5    -0.350000       12.0110           0
      1524 MEMB     12       DOPC     H13A     HL       0.250000       1.00800           0
      1525 MEMB     12       DOPC     H13B     HL       0.250000       1.00800           0
      1526 MEMB     12       DOPC     H13C     HL       0.250000       1.00800           0
      1527 MEMB     12       DOPC     C14      CTL5    -0.350000       12.0110           0
      1528 MEMB     12       DOPC     H14A     HL       0.250000       1.00800           0
      1529 MEMB     12       DOPC     H14B     HL       0.250000       1.00800           0
      1530 MEMB     12       DOPC     H14C     HL       0.250000       1.00800           0
      1531 MEMB     12       DOPC     C15      CTL5    -0.350000       12.0110           0
      1532 MEMB     12       DOPC     H15A     HL       0.250000       1.00800           0
      1533 MEMB     12       DOPC     H15B     HL       0.250000       1.00800           0
      1534 MEMB     12       DOPC     H15C     HL       0.250000       1.00800           0
      1535 MEMB     12       DOPC     C11      CTL2    -0.800000E-01   12.0110           0
      1536 MEMB     12       DOPC     H11A     HAL2     0.900000E-01   1.00800           0
      1537 MEMB     12       DOPC     H11B     HAL2     0.900000E-01   1.00800           0
      1538 MEMB     12       DOPC     P        PL        1.50000       30.9740           0
      1539 MEMB     12       DOPC     O13      O2L     -0.780000       15.9994           0
      1540 MEMB     12       DOPC     O14      O2L     -0.780000       15.9994           0
      1541 MEMB     12       DOPC     O12      OSLP    -0.570000       15.9994           0
      1542 MEMB     12       DOPC     O11      OSLP    -0.570000       15.9994           0
      1543 MEMB     12       DOPC     C1       CTL2    -0.800000E-01   12.0110           0
      1544 MEMB     12       DOPC     HA       HAL2     0.900000E-01   1.00800           0
      1545 MEMB     12       DOPC     HB       HAL2     0.900000E-01   1.00800           0
      1546 MEMB     12       DOPC     C2       CTL1     0.170000       12.0110           0
      1547 MEMB     12       DOPC     HS       HAL1     0.900000E-01   1.00800           0
      1548 MEMB     12       DOPC     O21      OSL     -0.490000       15.9994           0
      1549 MEMB     12       DOPC     C21      CL       0.900000       12.0110           0
      1550 MEMB     12       DOPC     O22      OBL     -0.630000       15.9994           0
      1551 MEMB     12       DOPC     C22      CTL2    -0.220000       12.0110           0
      1552 MEMB     12       DOPC     H2R      HAL2     0.900000E-01   1.00800           0
      1553 MEMB     12       DOPC     H2S      HAL2     0.900000E-01   1.00800           0
      1554 MEMB     12       DOPC     C3       CTL2     0.800000E-01   12.0110           0
      1555 MEMB     12       DOPC     HX       HAL2     0.900000E-01   1.00800           0
      1556 MEMB     12       DOPC     HY       HAL2     0.900000E-01   1.00800           0
      1557 MEMB     12       DOPC     O31      OSL     -0.490000       15.9994           0
      1558 MEMB     12       DOPC     C31      CL       0.900000       12.0110           0
      1559 MEMB     12       DOPC     O32      OBL     -0.630000       15.9994           0
      1560 MEMB     12       DOPC     C32      CTL2    -0.220000       12.0110           0
      1561 MEMB     12       DOPC     H2X      HAL2     0.900000E-01   1.00800           0
      1562 MEMB     12       DOPC     H2Y      HAL2     0.900000E-01   1.00800           0
      1563 MEMB     12       DOPC     C23      CTL2    -0.180000       12.0110           0
      1564 MEMB     12       DOPC     H3R      HAL2     0.900000E-01   1.00800           0
      1565 MEMB     12       DOPC     H3S      HAL2     0.900000E-01   1.00800           0
      1566 MEMB     12       DOPC     C24      CTL2    -0.180000       12.0110           0
      1567 MEMB     12       DOPC     H4R      HAL2     0.900000E-01   1.00800           0
      1568 MEMB     12       DOPC     H4S      HAL2     0.900000E-01   1.00800           0
      1569 MEMB     12       DOPC     C25      CTL2    -0.180000       12.0110           0
      1570 MEMB     12       DOPC     H5R      HAL2     0.900000E-01   1.00800           0
      1571 MEMB     12       DOPC     H5S      HAL2     0.900000E-01   1.00800           0
      1572 MEMB     12       DOPC     C26      CTL2    -0.180000       12.0110           0
      1573 MEMB     12       DOPC     H6R      HAL2     0.900000E-01   1.00800           0
      1574 MEMB     12       DOPC     H6S      HAL2     0.900000E-01   1.00800           0
      1575 MEMB     12       DOPC     C27      CTL2    -0.180000       12.0110           0
      1576 MEMB     12       DOPC     H7R      HAL2     0.900000E-01   1.00800           0
      1577 MEMB     12       DOPC     H7S      HAL2     0.900000E-01   1.00800           0
      1578 MEMB     12       DOPC     C28      CTL2    -0.180000       12.0110           0
      1579 MEMB     12       DOPC     H8R      HAL2     0.900000E-01   1.00800           0
      1580 MEMB     12       DOPC     H8S      HAL2     0.900000E-01   1.00800           0
      1581 MEMB     12       DOPC     C29      CEL1    -0.150000       12.0110           0
      1582 MEMB     12       DOPC     H9R      HEL1     0.150000       1.00800           0
      1583 MEMB     12       DOPC     C210     CEL1    -0.150000       12.0110           0
      1584 MEMB     12       DOPC     H10R     HEL1     0.150000       1.00800           0
      1585 MEMB     12       DOPC     C211     CTL2    -0.180000       12.0110           0
      1586 MEMB     12       DOPC     H11R     HAL2     0.900000E-01   1.00800           0
      1587 MEMB     12       DOPC     H11S     HAL2     0.900000E-01   1.00800           0
      1588 MEMB     12       DOPC     C212     CTL2    -0.180000       12.0110           0
      1589 MEMB     12       DOPC     H12R     HAL2     0.900000E-01   1.00800           0
      1590 MEMB     12       DOPC     H12S     HAL2     0.900000E-01   1.00800           0
      1591 MEMB     12       DOPC     C213     CTL2    -0.180000       12.0110           0
      1592 MEMB     12       DOPC     H13R     HAL2     0.900000E-01   1.00800           0
      1593 MEMB     12       DOPC     H13S     HAL2     0.900000E-01   1.00800           0
      1594 MEMB     12       DOPC     C214     CTL2    -0.180000       12.0110           0
      1595 MEMB     12       DOPC     H14R     HAL2     0.900000E-01   1.00800           0
      1596 MEMB     12       DOPC     H14S     HAL2     0.900000E-01   1.00800           0
      1597 MEMB     12       DOPC     C215     CTL2    -0.180000       12.0110           0
      1598 MEMB     12       DOPC     H15R     HAL2     0.900000E-01   1.00800           0
      1599 MEMB     12       DOPC     H15S     HAL2     0.900000E-01   1.00800           0
      1600 MEMB     12       DOPC     C216     CTL2    -0.180000       12.0110           0
      1601 MEMB     12       DOPC     H16R     HAL2     0.900000E-01   1.00800           0
      1602 MEMB     12       DOPC     H16S     HAL2     0.900000E-01   1.00800           0
      1603 MEMB     12       DOPC     C217     CTL2    -0.180000       12.0110           0
      1604 MEMB     12       DOPC     H17R     HAL2     0.900000E-01   1.00800           0
      1605 MEMB     12       DOPC     H17S     HAL2     0.900000E-01   1.00800           0
      1606 MEMB     12       DOPC     C218     CTL3    -0.270000       12.0110           0
      1607 MEMB     12       DOPC     H18R     HAL3     0.900000E-01   1.00800           0
      1608 MEMB     12       DOPC     H18S     HAL3     0.900000E-01   1.00800           0
      1609 MEMB     12       DOPC     H18T     HAL3     0.900000E-01   1.00800           0
      1610 MEMB     12       DOPC     C33      CTL2    -0.180000       12.0110           0
      1611 MEMB     12       DOPC     H3X      HAL2     0.900000E-01   1.00800           0
      1612 MEMB     12       DOPC     H3Y      HAL2     0.900000E-01   1.00800           0
      1613 MEMB     12       DOPC     C34      CTL2    -0.180000       12.0110           0
      1614 MEMB     12       DOPC     H4X      HAL2     0.900000E-01   1.00800           0
      1615 MEMB     12       DOPC     H4Y      HAL2     0.900000E-01   1.00800           0
      1616 MEMB     12       DOPC     C35      CTL2    -0.180000       12.0110           0
      1617 MEMB     12       DOPC     H5X      HAL2     0.900000E-01   1.00800           0
      1618 MEMB     12       DOPC     H5Y      HAL2     0.900000E-01   1.00800           0
      1619 MEMB     12       DOPC     C36      CTL2    -0.180000       12.0110           0
      1620 MEMB     12       DOPC     H6X      HAL2     0.900000E-01   1.00800           0
      1621 MEMB     12       DOPC     H6Y      HAL2     0.900000E-01   1.00800           0
      1622 MEMB     12       DOPC     C37      CTL2    -0.180000       12.0110           0
      1623 MEMB     12       DOPC     H7X      HAL2     0.900000E-01   1.00800           0
      1624 MEMB     12       DOPC     H7Y      HAL2     0.900000E-01   1.00800           0
      1625 MEMB     12       DOPC     C38      CTL2    -0.180000       12.0110           0
      1626 MEMB     12       DOPC     H8X      HAL2     0.900000E-01   1.00800           0
      1627 MEMB     12       DOPC     H8Y      HAL2     0.900000E-01   1.00800           0
      1628 MEMB     12       DOPC     C39      CEL1    -0.150000       12.0110           0
      1629 MEMB     12       DOPC     H9X      HEL1     0.150000       1.00800           0
      1630 MEMB     12       DOPC     C310     CEL1    -0.150000       12.0110           0
      1631 MEMB     12       DOPC     H10X     HEL1     0.150000       1.00800           0
      1632 MEMB     12       DOPC     C311     CTL2    -0.180000       12.0110           0
      1633 MEMB     12       DOPC     H11X     HAL2     0.900000E-01   1.00800           0
      1634 MEMB     12       DOPC     H11Y     HAL2     0.900000E-01   1.00800           0
      1635 MEMB     12       DOPC     C312     CTL2    -0.180000       12.0110           0
      1636 MEMB     12       DOPC     H12X     HAL2     0.900000E-01   1.00800           0
      1637 MEMB     12       DOPC     H12Y     HAL2     0.900000E-01   1.00800           0
      1638 MEMB     12       DOPC     C313     CTL2    -0.180000       12.0110           0
      1639 MEMB     12       DOPC     H13X     HAL2     0.900000E-01   1.00800           0
      1640 MEMB     12       DOPC     H13Y     HAL2     0.900000E-01   1.00800           0
      1641 MEMB     12       DOPC     C314     CTL2    -0.180000       12.0110           0
      1642 MEMB     12       DOPC     H14X     HAL2     0.900000E-01   1.00800           0
      1643 MEMB     12       DOPC     H14Y     HAL2     0.900000E-01   1.00800           0
      1644 MEMB     12       DOPC     C315     CTL2    -0.180000       12.0110           0
      1645 MEMB     12       DOPC     H15X     HAL2     0.900000E-01   1.00800           0
      1646 MEMB     12       DOPC     H15Y     HAL2     0.900000E-01   1.00800           0
      1647 MEMB     12       DOPC     C316     CTL2    -0.180000       12.0110           0
      1648 MEMB     12       DOPC     H16X     HAL2     0.900000E-01   1.00800           0
      1649 MEMB     12       DOPC     H16Y     HAL2     0.900000E-01   1.00800           0
      1650 MEMB     12       DOPC     C317     CTL2    -0.180000       12.0110           0
      1651 MEMB     12       DOPC     H17X     HAL2     0.900000E-01   1.00800           0
      1652 MEMB     12       DOPC     H17Y     HAL2     0.900000E-01   1.00800           0
      1653 MEMB     12       DOPC     C318     CTL3    -0.270000       12.0110           0
      1654 MEMB     12       DOPC     H18X     HAL3     0.900000E-01   1.00800           0
      1655 MEMB     12       DOPC     H18Y     HAL3     0.900000E-01   1.00800           0
      1656 MEMB     12       DOPC     H18Z     HAL3     0.900000E-01   1.00800           0
      1657 MEMB     13       DOPC     N        NTL     -0.600000       14.0070           0
      1658 MEMB     13       DOPC     C12      CTL2    -0.100000       12.0110           0
      1659 MEMB     13       DOPC     H12A     HL       0.250000       1.00800           0
      1660 MEMB     13       DOPC     H12B     HL       0.250000       1.00800           0
      1661 MEMB     13       DOPC     C13      CTL5    -0.350000       12.0110           0
      1662 MEMB     13       DOPC     H13A     HL       0.250000       1.00800           0
      1663 MEMB     13       DOPC     H13B     HL       0.250000       1.00800           0
      1664 MEMB     13       DOPC     H13C     HL       0.250000       1.00800           0
      1665 MEMB     13       DOPC     C14      CTL5    -0.350000       12.0110           0
      1666 MEMB     13       DOPC     H14A     HL       0.250000       1.00800           0
      1667 MEMB     13       DOPC     H14B     HL       0.250000       1.00800           0
      1668 MEMB     13       DOPC     H14C     HL       0.250000       1.00800           0
      1669 MEMB     13       DOPC     C15      CTL5    -0.350000       12.0110           0
      1670 MEMB     13       DOPC     H15A     HL       0.250000       1.00800           0
      1671 MEMB     13       DOPC     H15B     HL       0.250000       1.00800           0
      1672 MEMB     13       DOPC     H15C     HL       0.250000       1.00800           0
      1673 MEMB     13       DOPC     C11      CTL2    -0.800000E-01   12.0110           0
      1674 MEMB     13       DOPC     H11A     HAL2     0.900000E-01   1.00800           0
      1675 MEMB     13       DOPC     H11B     HAL2     0.900000E-01   1.00800           0
      1676 MEMB     13       DOPC     P        PL        1.50000       30.9740           0
      1677 MEMB     13       DOPC     O13      O2L     -0.780000       15.9994           0
      1678 MEMB     13       DOPC     O14      O2L     -0.780000       15.9994           0
      1679 MEMB     13       DOPC     O12      OSLP    -0.570000       15.9994           0
      1680 MEMB     13       DOPC     O11      OSLP    -0.570000       15.9994           0
      1681 MEMB     13       DOPC     C1       CTL2    -0.800000E-01   12.0110           0
      1682 MEMB     13       DOPC     HA       HAL2     0.900000E-01   1.00800           0
      1683 MEMB     13       DOPC     HB       HAL2     0.900000E-01   1.00800           0
      1684 MEMB     13       DOPC     C2       CTL1     0.170000       12.0110           0
      1685 MEMB     13       DOPC     HS       HAL1     0.900000E-01   1.00800           0
      1686 MEMB     13       DOPC     O21      OSL     -0.490000       15.9994           0
      1687 MEMB     13       DOPC     C21      CL       0.900000       12.0110           0
      1688 MEMB     13       DOPC     O22      OBL     -0.630000       15.9994           0
      1689 MEMB     13       DOPC     C22      CTL2    -0.220000       12.0110           0
      1690 MEMB     13       DOPC     H2R      HAL2     0.900000E-01   1.00800           0
      1691 MEMB     13       DOPC     H2S      HAL2     0.900000E-01   1.00800           0
      1692 MEMB     13       DOPC     C3       CTL2     0.800000E-01   12.0110           0
      1693 MEMB     13       DOPC     HX       HAL2     0.900000E-01   1.00800           0
      1694 MEMB     13       DOPC     HY       HAL2     0.900000E-01   1.00800           0
      1695 MEMB     13       DOPC     O31      OSL     -0.490000       15.9994           0
      1696 MEMB     13       DOPC     C31      CL       0.900000       12.0110           0
      1697 MEMB     13       DOPC     O32      OBL     -0.630000       15.9994           0
      1698 MEMB     13       DOPC     C32      CTL2    -0.220000       12.0110           0
      1699 MEMB     13       DOPC     H2X      HAL2     0.900000E-01   1.00800           0
      1700 MEMB     13       DOPC     H2Y      HAL2     0.900000E-01   1.00800           0
      1701 MEMB     13       DOPC     C23      CTL2    -0.180000       12.0110           0
      1702 MEMB     13       DOPC     H3R      HAL2     0.900000E-01   1.00800           0
      1703 MEMB     13       DOPC     H3S      HAL2     0.900000E-01   1.00800           0
      1704 MEMB     13       DOPC     C24      CTL2    -0.180000       12.0110           0
      1705 MEMB     13       DOPC     H4R      HAL2     0.900000E-01   1.00800           0
      1706 MEMB     13       DOPC     H4S      HAL2     0.900000E-01   1.00800           0
      1707 MEMB     13       DOPC     C25      CTL2    -0.180000       12.0110           0
      1708 MEMB     13       DOPC     H5R      HAL2     0.900000E-01   1.00800           0
      1709 MEMB     13       DOPC     H5S      HAL2     0.900000E-01   1.00800           0
      1710 MEMB     13       DOPC     C26      CTL2    -0.180000       12.0110           0
      1711 MEMB     13       DOPC     H6R      HAL2     0.900000E-01   1.00800           0
      1712 MEMB     13       DOPC     H6S      HAL2     0.900000E-01   1.00800           0
      1713 MEMB     13       DOPC     C27      CTL2    -0.180000       12.0110           0
      1714 MEMB     13       DOPC     H7R      HAL2     0.900000E-01   1.00800           0
      1715 MEMB     13       DOPC     H7S      HAL2     0.900000E-01   1.00800           0
      1716 MEMB     13       DOPC     C28      CTL2    -0.180000       12.0110           0
      1717 MEMB     13       DOPC     H8R      HAL2     0.900000E-01   1.00800           0
      1718 MEMB     13       DOPC     H8S      HAL2     0.900000E-01   1.00800           0
      1719 MEMB     13       DOPC     C29      CEL1    -0.150000       12.0110           0
      1720 MEMB     13       DOPC     H9R      HEL1     0.150000       1.00800           0
      1721 MEMB     13       DOPC     C210     CEL1    -0.150000       12.0110           0
      1722 MEMB     13       DOPC     H10R     HEL1     0.150000       1.00800           0
      1723 MEMB     13       DOPC     C211     CTL2    -0.180000       12.0110           0
      1724 MEMB     13       DOPC     H11R     HAL2     0.900000E-01   1.00800           0
      1725 MEMB     13       DOPC     H11S     HAL2     0.900000E-01   1.00800           0
      1726 MEMB     13       DOPC     C212     CTL2    -0.180000       12.0110           0
      1727 MEMB     13       DOPC     H12R     HAL2     0.900000E-01   1.00800           0
      1728 MEMB     13       DOPC     H12S     HAL2     0.900000E-01   1.00800           0
      1729 MEMB     13       DOPC     C213     CTL2    -0.180000       12.0110           0
      1730 MEMB     13       DOPC     H13R     HAL2     0.900000E-01   1.00800           0
      1731 MEMB     13       DOPC     H13S     HAL2     0.900000E-01   1.00800           0
      1732 MEMB     13       DOPC     C214     CTL2    -0.180000       12.0110           0
      1733 MEMB     13       DOPC     H14R     HAL2     0.900000E-01   1.00800           0
      1734 MEMB     13       DOPC     H14S     HAL2     0.900000E-01   1.00800           0
      1735 MEMB     13       DOPC     C215     CTL2    -0.180000       12.0110           0
      1736 MEMB     13       DOPC     H15R     HAL2     0.900000E-01   1.00800           0
      1737 MEMB     13       DOPC     H15S     HAL2     0.900000E-01   1.00800           0
      1738 MEMB     13       DOPC     C216     CTL2    -0.180000       12.0110           0
      1739 MEMB     13       DOPC     H16R     HAL2     0.900000E-01   1.00800           0
      1740 MEMB     13       DOPC     H16S     HAL2     0.900000E-01   1.00800           0
      1741 MEMB     13       DOPC     C217     CTL2    -0.180000       12.0110           0
      1742 MEMB     13       DOPC     H17R     HAL2     0.900000E-01   1.00800           0
      1743 MEMB     13       DOPC     H17S     HAL2     0.900000E-01   1.00800           0
      1744 MEMB     13       DOPC     C218     CTL3    -0.270000       12.0110           0
      1745 MEMB     13       DOPC     H18R     HAL3     0.900000E-01   1.00800           0
      1746 MEMB     13       DOPC     H18S     HAL3     0.900000E-01   1.00800           0
      1747 MEMB     13       DOPC     H18T     HAL3     0.900000E-01   1.00800           0
      1748 MEMB     13       DOPC     C33      CTL2    -0.180000       12.0110           0
      1749 MEMB     13       DOPC     H3X      HAL2     0.900000E-01   1.00800           0
      1750 MEMB     13       DOPC     H3Y      HAL2     0.900000E-01   1.00800           0
      1751 MEMB     13       DOPC     C34      CTL2    -0.180000       12.0110           0
      1752 MEMB     13       DOPC     H4X      HAL2     0.900000E-01   1.00800           0
      1753 MEMB     13       DOPC     H4Y      HAL2     0.900000E-01   1.00800           0
      1754 MEMB     13       DOPC     C35      CTL2    -0.180000       12.0110           0
      1755 MEMB     13       DOPC     H5X      HAL2     0.900000E-01   1.00800           0
      1756 MEMB     13       DOPC     H5Y      HAL2     0.900000E-01   1.00800           0
      1757 MEMB     13       DOPC     C36      CTL2    -0.180000       12.0110           0
      1758 MEMB     13       DOPC     H6X      HAL2     0.900000E-01   1.00800           0
      1759 MEMB     13       DOPC     H6Y      HAL2     0.900000E-01   1.00800           0
      1760 MEMB     13       DOPC     C37      CTL2    -0.180000       12.0110           0
      1761 MEMB     13       DOPC     H7X      HAL2     0.900000E-01   1.00800           0
      1762 MEMB     13       DOPC     H7Y      HAL2     0.900000E-01   1.00800           0
      1763 MEMB     13       DOPC     C38      CTL2    -0.180000       12.0110           0
      1764 MEMB     13       DOPC     H8X      HAL2     0.900000E-01   1.00800           0
      1765 MEMB     13       DOPC     H8Y      HAL2     0.900000E-01   1.00800           0
      1766 MEMB     13       DOPC     C39      CEL1    -0.150000       12.0110           0
      1767 MEMB     13       DOPC     H9X      HEL1     0.150000       1.00800           0
      1768 MEMB     13       DOPC     C310     CEL1    -0.150000       12.0110           0
      1769 MEMB     13       DOPC     H10X     HEL1     0.150000       1.00800           0
      1770 MEMB     13       DOPC     C311     CTL2    -0.180000       12.0110           0
      1771 MEMB     13       DOPC     H11X     HAL2     0.900000E-01   1.00800           0
      1772 MEMB     13       DOPC     H11Y     HAL2     0.900000E-01   1.00800           0
      1773 MEMB     13       DOPC     C312     CTL2    -0.180000       12.0110           0
      1774 MEMB     13       DOPC     H12X     HAL2     0.900000E-01   1.00800           0
      1775 MEMB     13       DOPC     H12Y     HAL2     0.900000E-01   1.00800           0
      1776 MEMB     13       DOPC     C313     CTL2    -0.180000       12.0110           0
      1777 MEMB     13       DOPC     H13X     HAL2     0.900000E-01   1.00800           0
      1778 MEMB     13       DOPC     H13Y     HAL2     0.900000E-01   1.00800           0
      1779 MEMB     13       DOPC     C314     CTL2    -0.180000       12.0110           0
      1780 MEMB     13       DOPC     H14X     HAL2     0.900000E-01   1.00800           0
      1781 MEMB     13       DOPC     H14Y     HAL2     0.900000E-01   1.00800           0
      1782 MEMB     13       DOPC     C315     CTL2    -0.180000       12.0110           0
      1783 MEMB     13       DOPC     H15X     HAL2     0.900000E-01   1.00800           0
      1784 MEMB     13       DOPC     H15Y     HAL2     0.900000E-01   1.00800           0
      1785 MEMB     13       DOPC     C316     CTL2    -0.180000       12.0110           0
      1786 MEMB     13       DOPC     H16X     HAL2     0.900000E-01   1.00800           0
      1787 MEMB     13       DOPC     H16Y     HAL2     0.900000E-01   1.00800           0
      1788 MEMB     13       DOPC     C317     CTL2    -0.180000       12.0110           0
      1789 MEMB     13       DOPC     H17X     HAL2     0.900000E-01   1.00800           0
      1790 MEMB     13       DOPC     H17Y     HAL2     0.900000E-01   1.00800           0
      1791 MEMB     13       DOPC     C318     CTL3    -0.270000       12.0110           0
      1792 MEMB     13       DOPC     H18X     HAL3     0.900000E-01   1.00800           0
      1793 MEMB     13       DOPC     H18Y     HAL3     0.900000E-01   1.00800           0
      1794 MEMB     13       DOPC     H18Z     HAL3     0.900000E-01   1.00800           0
      1795 MEMB     14       DOPC     N        NTL     -0.600000       14.0070           0
      1796 MEMB     14       DOPC     C12      CTL2    -0.100000       12.0110           0
      1797 MEMB     14       DOPC     H12A     HL       0.250000       1.00800           0
      1798 MEMB     14       DOPC     H12B     HL       0.250000       1.00800           0
      1799 MEMB     14       DOPC     C13      CTL5    -0.350000       12.0110           0
      1800 MEMB     14       DOPC     H13A     HL       0.250000       1.00800           0
      1801 MEMB     14       DOPC     H13B     HL       0.250000       1.00800           0
      1802 MEMB     14       DOPC     H13C     HL       0.250000       1.00800           0
      1803 MEMB     14       DOPC     C14      CTL5    -0.350000       12.0110           0
      1804 MEMB     14       DOPC     H14A     HL       0.250000       1.00800           0
      1805 MEMB     14       DOPC     H14B     HL       0.250000       1.00800           0
      1806 MEMB     14       DOPC     H14C     HL       0.250000       1.00800           0
      1807 MEMB     14       DOPC     C15      CTL5    -0.350000       12.0110           0
      1808 MEMB     14       DOPC     H15A     HL       0.250000       1.00800           0
      1809 MEMB     14       DOPC     H15B     HL       0.250000       1.00800           0
      1810 MEMB     14       DOPC     H15C     HL       0.250000       1.00800           0
      1811 MEMB     14       DOPC     C11      CTL2    -0.800000E-01   12.0110           0
      1812 MEMB     14       DOPC     H11A     HAL2     0.900000E-01   1.00800           0
      1813 MEMB     14       DOPC     H11B     HAL2     0.900000E-01   1.00800           0
      1814 MEMB     14       DOPC     P        PL        1.50000       30.9740           0
      1815 MEMB     14       DOPC     O13      O2L     -0.780000       15.9994           0
      1816 MEMB     14       DOPC     O14      O2L     -0.780000       15.9994           0
      1817 MEMB     14       DOPC     O12      OSLP    -0.570000       15.9994           0
      1818 MEMB     14       DOPC     O11      OSLP    -0.570000       15.9994           0
      1819 MEMB     14       DOPC     C1       CTL2    -0.800000E-01   12.0110           0
      1820 MEMB     14       DOPC     HA       HAL2     0.900000E-01   1.00800           0
      1821 MEMB     14       DOPC     HB       HAL2     0.900000E-01   1.00800           0
      1822 MEMB     14       DOPC     C2       CTL1     0.170000       12.0110           0
      1823 MEMB     14       DOPC     HS       HAL1     0.900000E-01   1.00800           0
      1824 MEMB     14       DOPC     O21      OSL     -0.490000       15.9994           0
      1825 MEMB     14       DOPC     C21      CL       0.900000       12.0110           0
      1826 MEMB     14       DOPC     O22      OBL     -0.630000       15.9994           0
      1827 MEMB     14       DOPC     C22      CTL2    -0.220000       12.0110           0
      1828 MEMB     14       DOPC     H2R      HAL2     0.900000E-01   1.00800           0
      1829 MEMB     14       DOPC     H2S      HAL2     0.900000E-01   1.00800           0
      1830 MEMB     14       DOPC     C3       CTL2     0.800000E-01   12.0110           0
      1831 MEMB     14       DOPC     HX       HAL2     0.900000E-01   1.00800           0
      1832 MEMB     14       DOPC     HY       HAL2     0.900000E-01   1.00800           0
      1833 MEMB     14       DOPC     O31      OSL     -0.490000       15.9994           0
      1834 MEMB     14       DOPC     C31      CL       0.900000       12.0110           0
      1835 MEMB     14       DOPC     O32      OBL     -0.630000       15.9994           0
      1836 MEMB     14       DOPC     C32      CTL2    -0.220000       12.0110           0
      1837 MEMB     14       DOPC     H2X      HAL2     0.900000E-01   1.00800           0
      1838 MEMB     14       DOPC     H2Y      HAL2     0.900000E-01   1.00800           0
      1839 MEMB     14       DOPC     C23      CTL2    -0.180000       12.0110           0
      1840 MEMB     14       DOPC     H3R      HAL2     0.900000E-01   1.00800           0
      1841 MEMB     14       DOPC     H3S      HAL2     0.900000E-01   1.00800           0
      1842 MEMB     14       DOPC     C24      CTL2    -0.180000       12.0110           0
      1843 MEMB     14       DOPC     H4R      HAL2     0.900000E-01   1.00800           0
      1844 MEMB     14       DOPC     H4S      HAL2     0.900000E-01   1.00800           0
      1845 MEMB     14       DOPC     C25      CTL2    -0.180000       12.0110           0
      1846 MEMB     14       DOPC     H5R      HAL2     0.900000E-01   1.00800           0
      1847 MEMB     14       DOPC     H5S      HAL2     0.900000E-01   1.00800           0
      1848 MEMB     14       DOPC     C26      CTL2    -0.180000       12.0110           0
      1849 MEMB     14       DOPC     H6R      HAL2     0.900000E-01   1.00800           0
      1850 MEMB     14       DOPC     H6S      HAL2     0.900000E-01   1.00800           0
      1851 MEMB     14       DOPC     C27      CTL2    -0.180000       12.0110           0
      1852 MEMB     14       DOPC     H7R      HAL2     0.900000E-01   1.00800           0
      1853 MEMB     14       DOPC     H7S      HAL2     0.900000E-01   1.00800           0
      1854 MEMB     14       DOPC     C28      CTL2    -0.180000       12.0110           0
      1855 MEMB     14       DOPC     H8R      HAL2     0.900000E-01   1.00800           0
      1856 MEMB     14       DOPC     H8S      HAL2     0.900000E-01   1.00800           0
      1857 MEMB     14       DOPC     C29      CEL1    -0.150000       12.0110           0
      1858 MEMB     14       DOPC     H9R      HEL1     0.150000       1.00800           0
      1859 MEMB     14       DOPC     C210     CEL1    -0.150000       12.0110           0
      1860 MEMB     14       DOPC     H10R     HEL1     0.150000       1.00800           0
      1861 MEMB     14       DOPC     C211     CTL2    -0.180000       12.0110           0
      1862 MEMB     14       DOPC     H11R     HAL2     0.900000E-01   1.00800           0
      1863 MEMB     14       DOPC     H11S     HAL2     0.900000E-01   1.00800           0
      1864 MEMB     14       DOPC     C212     CTL2    -0.180000       12.0110           0
      1865 MEMB     14       DOPC     H12R     HAL2     0.900000E-01   1.00800           0
      1866 MEMB     14       DOPC     H12S     HAL2     0.900000E-01   1.00800           0
      1867 MEMB     14       DOPC     C213     CTL2    -0.180000       12.0110           0
      1868 MEMB     14       DOPC     H13R     HAL2     0.900000E-01   1.00800           0
      1869 MEMB     14       DOPC     H13S     HAL2     0.900000E-01   1.00800           0
      1870 MEMB     14       DOPC     C214     CTL2    -0.180000       12.0110           0
      1871 MEMB     14       DOPC     H14R     HAL2     0.900000E-01   1.00800           0
      1872 MEMB     14       DOPC     H14S     HAL2     0.900000E-01   1.00800           0
      1873 MEMB     14       DOPC     C215     CTL2    -0.180000       12.0110           0
      1874 MEMB     14       DOPC     H15R     HAL2     0.900000E-01   1.00800           0
      1875 MEMB     14       DOPC     H15S     HAL2     0.900000E-01   1.00800           0
      1876 MEMB     14       DOPC     C216     CTL2    -0.180000       12.0110           0
      1877 MEMB     14       DOPC     H16R     HAL2     0.900000E-01   1.00800           0
      1878 MEMB     14       DOPC     H16S     HAL2     0.900000E-01   1.00800           0
      1879 MEMB     14       DOPC     C217     CTL2    -0.180000       12.0110           0
      1880 MEMB     14       DOPC     H17R     HAL2     0.900000E-01   1.00800           0
      1881 MEMB     14       DOPC     H17S     HAL2     0.900000E-01   1.00800           0
      1882 MEMB     14       DOPC     C218     CTL3    -0.270000       12.0110           0
      1883 MEMB     14       DOPC     H18R     HAL3     0.900000E-01   1.00800           0
      1884 MEMB     14       DOPC     H18S     HAL3     0.900000E-01   1.00800           0
      1885 MEMB     14       DOPC     H18T     HAL3     0.900000E-01   1.00800           0
      1886 MEMB     14       DOPC     C33      CTL2    -0.180000       12.0110           0
      1887 MEMB     14       DOPC     H3X      HAL2     0.900000E-01   1.00800           0
      1888 MEMB     14       DOPC     H3Y      HAL2     0.900000E-01   1.00800           0
      1889 MEMB     14       DOPC     C34      CTL2    -0.180000       12.0110           0
      1890 MEMB     14       DOPC     H4X      HAL2     0.900000E-01   1.00800           0
      1891 MEMB     14       DOPC     H4Y      HAL2     0.900000E-01   1.00800           0
      1892 MEMB     14       DOPC     C35      CTL2    -0.180000       12.0110           0
      1893 MEMB     14       DOPC     H5X      HAL2     0.900000E-01   1.00800           0
      1894 MEMB     14       DOPC     H5Y      HAL2     0.900000E-01   1.00800           0
      1895 MEMB     14       DOPC     C36      CTL2    -0.180000       12.0110           0
      1896 MEMB     14       DOPC     H6X      HAL2     0.900000E-01   1.00800           0
      1897 MEMB     14       DOPC     H6Y      HAL2     0.900000E-01   1.00800           0
      1898 MEMB     14       DOPC     C37      CTL2    -0.180000       12.0110           0
      1899 MEMB     14       DOPC     H7X      HAL2     0.900000E-01   1.00800           0
      1900 MEMB     14       DOPC     H7Y      HAL2     0.900000E-01   1.00800           0
      1901 MEMB     14       DOPC     C38      CTL2    -0.180000       12.0110           0
      1902 MEMB     14       DOPC     H8X      HAL2     0.900000E-01   1.00800           0
      1903 MEMB     14       DOPC     H8Y      HAL2     0.900000E-01   1.00800           0
      1904 MEMB     14       DOPC     C39      CEL1    -0.150000       12.0110           0
      1905 MEMB     14       DOPC     H9X      HEL1     0.150000       1.00800           0
      1906 MEMB     14       DOPC     C310     CEL1    -0.150000       12.0110           0
      1907 MEMB     14       DOPC     H10X     HEL1     0.150000       1.00800           0
      1908 MEMB     14       DOPC     C311     CTL2    -0.180000       12.0110           0
      1909 MEMB     14       DOPC     H11X     HAL2     0.900000E-01   1.00800           0
      1910 MEMB     14       DOPC     H11Y     HAL2     0.900000E-01   1.00800           0
      1911 MEMB     14       DOPC     C312     CTL2    -0.180000       12.0110           0
      1912 MEMB     14       DOPC     H12X     HAL2     0.900000E-01   1.00800           0
      1913 MEMB     14       DOPC     H12Y     HAL2     0.900000E-01   1.00800           0
      1914 MEMB     14       DOPC     C313     CTL2    -0.180000       12.0110           0
      1915 MEMB     14       DOPC     H13X     HAL2     0.900000E-01   1.00800           0
      1916 MEMB     14       DOPC     H13Y     HAL2     0.900000E-01   1.00800           0
      1917 MEMB     14       DOPC     C314     CTL2    -0.180000       12.0110           0
      1918 MEMB     14       DOPC     H14X     HAL2     0.900000E-01   1.00800           0
      1919 MEMB     14       DOPC     H14Y     HAL2     0.900000E-01   1.00800           0
      1920 MEMB     14       DOPC     C315     CTL2    -0.180000       12.0110           0
      1921 MEMB     14       DOPC     H15X     HAL2     0.900000E-01   1.00800           0
      1922 MEMB     14       DOPC     H15Y     HAL2     0.900000E-01   1.00800           0
      1923 MEMB     14       DOPC     C316     CTL2    -0.180000       12.0110           0
      1924 MEMB     14       DOPC     H16X     HAL2     0.900000E-01   1.00800           0
      1925 MEMB     14       DOPC     H16Y     HAL2     0.900000E-01   1.00800           0
      1926 MEMB     14       DOPC     C317     CTL2    -0.180000       12.0110           0
      1927 MEMB     14       DOPC     H17X     HAL2     0.900000E-01   1.00800           0
      1928 MEMB     14       DOPC     H17Y     HAL2     0.900000E-01   1.00800           0
      1929 MEMB     14       DOPC     C318     CTL3    -0.270000       12.0110           0
      1930 MEMB     14       DOPC     H18X     HAL3     0.900000E-01   1.00800           0
      1931 MEMB     14       DOPC     H18Y     HAL3     0.900000E-01   1.00800           0
      1932 MEMB     14       DOPC     H18Z     HAL3     0.900000E-01   1.00800           0
      1933 MEMB     15       DOPC     N        NTL     -0.600000       14.0070           0
      1934 MEMB     15       DOPC     C12      CTL2    -0.100000       12.0110           0
      1935 MEMB     15       DOPC     H12A     HL       0.250000       1.00800           0
      1936 MEMB     15       DOPC     H12B     HL       0.250000       1.00800           0
      1937 MEMB     15       DOPC     C13      CTL5    -0.350000       12.0110           0
      1938 MEMB     15       DOPC     H13A     HL       0.250000       1.00800           0
      1939 MEMB     15       DOPC     H13B     HL       0.250000       1.00800           0
      1940 MEMB     15       DOPC     H13C     HL       0.250000       1.00800           0
      1941 MEMB     15       DOPC     C14      CTL5    -0.350000       12.0110           0
      1942 MEMB     15       DOPC     H14A     HL       0.250000       1.00800           0
      1943 MEMB     15       DOPC     H14B     HL       0.250000       1.00800           0
      1944 MEMB     15       DOPC     H14C     HL       0.250000       1.00800           0
      1945 MEMB     15       DOPC     C15      CTL5    -0.350000       12.0110           0
      1946 MEMB     15       DOPC     H15A     HL       0.250000       1.00800           0
      1947 MEMB     15       DOPC     H15B     HL       0.250000       1.00800           0
      1948 MEMB     15       DOPC     H15C     HL       0.250000       1.00800           0
      1949 MEMB     15       DOPC     C11      CTL2    -0.800000E-01   12.0110           0
      1950 MEMB     15       DOPC     H11A     HAL2     0.900000E-01   1.00800           0
      1951 MEMB     15       DOPC     H11B     HAL2     0.900000E-01   1.00800           0
      1952 MEMB     15       DOPC     P        PL        1.50000       30.9740           0
      1953 MEMB     15       DOPC     O13      O2L     -0.780000       15.9994           0
      1954 MEMB     15       DOPC     O14      O2L     -0.780000       15.9994           0
      1955 MEMB     15       DOPC     O12      OSLP    -0.570000       15.9994           0
      1956 MEMB     15       DOPC     O11      OSLP    -0.570000       15.9994           0
      1957 MEMB     15       DOPC     C1       CTL2    -0.800000E-01   12.0110           0
      1958 MEMB     15       DOPC     HA       HAL2     0.900000E-01   1.00800           0
      1959 MEMB     15       DOPC     HB       HAL2     0.900000E-01   1.00800           0
      1960 MEMB     15       DOPC     C2       CTL1     0.170000       12.0110           0
      1961 MEMB     15       DOPC     HS       HAL1     0.900000E-01   1.00800           0
      1962 MEMB     15       DOPC     O21      OSL     -0.490000       15.9994           0
      1963 MEMB     15       DOPC     C21      CL       0.900000       12.0110           0
      1964 MEMB     15       DOPC     O22      OBL     -0.630000       15.9994           0
      1965 MEMB     15       DOPC     C22      CTL2    -0.220000       12.0110           0
      1966 MEMB     15       DOPC     H2R      HAL2     0.900000E-01   1.00800           0
      1967 MEMB     15       DOPC     H2S      HAL2     0.900000E-01   1.00800           0
      1968 MEMB     15       DOPC     C3       CTL2     0.800000E-01   12.0110           0
      1969 MEMB     15       DOPC     HX       HAL2     0.900000E-01   1.00800           0
      1970 MEMB     15       DOPC     HY       HAL2     0.900000E-01   1.00800           0
      1971 MEMB     15       DOPC     O31      OSL     -0.490000       15.9994           0
      1972 MEMB     15       DOPC     C31      CL       0.900000       12.0110           0
      1973 MEMB     15       DOPC     O32      OBL     -0.630000       15.9994           0
      1974 MEMB     15       DOPC     C32      CTL2    -0.220000       12.0110           0
      1975 MEMB     15       DOPC     H2X      HAL2     0.900000E-01   1.00800           0
      1976 MEMB     15       DOPC     H2Y      HAL2     0.900000E-01   1.00800           0
      1977 MEMB     15       DOPC     C23      CTL2    -0.180000       12.0110           0
      1978 MEMB     15       DOPC     H3R      HAL2     0.900000E-01   1.00800           0
      1979 MEMB     15       DOPC     H3S      HAL2     0.900000E-01   1.00800           0
      1980 MEMB     15       DOPC     C24      CTL2    -0.180000       12.0110           0
      1981 MEMB     15       DOPC     H4R      HAL2     0.900000E-01   1.00800           0
      1982 MEMB     15       DOPC     H4S      HAL2     0.900000E-01   1.00800           0
      1983 MEMB     15       DOPC     C25      CTL2    -0.180000       12.0110           0
      1984 MEMB     15       DOPC     H5R      HAL2     0.900000E-01   1.00800           0
      1985 MEMB     15       DOPC     H5S      HAL2     0.900000E-01   1.00800           0
      1986 MEMB     15       DOPC     C26      CTL2    -0.180000       12.0110           0
      1987 MEMB     15       DOPC     H6R      HAL2     0.900000E-01   1.00800           0
      1988 MEMB     15       DOPC     H6S      HAL2     0.900000E-01   1.00800           0
      1989 MEMB     15       DOPC     C27      CTL2    -0.180000       12.0110           0
      1990 MEMB     15       DOPC     H7R      HAL2     0.900000E-01   1.00800           0
      1991 MEMB     15       DOPC     H7S      HAL2     0.900000E-01   1.00800           0
      1992 MEMB     15       DOPC     C28      CTL2    -0.180000       12.0110           0
      1993 MEMB     15       DOPC     H8R      HAL2     0.900000E-01   1.00800           0
      1994 MEMB     15       DOPC     H8S      HAL2     0.900000E-01   1.00800           0
      1995 MEMB     15       DOPC     C29      CEL1    -0.150000       12.0110           0
      1996 MEMB     15       DOPC     H9R      HEL1     0.150000       1.00800           0
      1997 MEMB     15       DOPC     C210     CEL1    -0.150000       12.0110           0
      1998 MEMB     15       DOPC     H10R     HEL1     0.150000       1.00800           0
      1999 MEMB     15       DOPC     C211     CTL2    -0.180000       12.0110           0
      2000 MEMB     15       DOPC     H11R     HAL2     0.900000E-01   1.00800           0
      2001 MEMB     15       DOPC     H11S     HAL2     0.900000E-01   1.00800           0
      2002 MEMB     15       DOPC     C212     CTL2    -0.180000       12.0110           0
      2003 MEMB     15       DOPC     H12R     HAL2     0.900000E-01   1.00800           0
      2004 MEMB     15       DOPC     H12S     HAL2     0.900000E-01   1.00800           0
      2005 MEMB     15       DOPC     C213     CTL2    -0.180000       12.0110           0
      2006 MEMB     15       DOPC     H13R     HAL2     0.900000E-01   1.00800           0
      2007 MEMB     15       DOPC     H13S     HAL2     0.900000E-01   1.00800           0
      2008 MEMB     15       DOPC     C214     CTL2    -0.180000       12.0110           0
      2009 MEMB     15       DOPC     H14R     HAL2     0.900000E-01   1.00800           0
      2010 MEMB     15       DOPC     H14S     HAL2     0.900000E-01   1.00800           0
      2011 MEMB     15       DOPC     C215     CTL2    -0.180000       12.0110           0
      2012 MEMB     15       DOPC     H15R     HAL2     0.900000E-01   1.00800           0
      2013 MEMB     15       DOPC     H15S     HAL2     0.900000E-01   1.00800           0
      2014 MEMB     15       DOPC     C216     CTL2    -0.180000       12.0110           0
      2015 MEMB     15       DOPC     H16R     HAL2     0.900000E-01   1.00800           0
      2016 MEMB     15       DOPC     H16S     HAL2     0.900000E-01   1.00800           0
      2017 MEMB     15       DOPC     C217     CTL2    -0.180000       12.0110           0
      2018 MEMB     15       DOPC     H17R     HAL2     0.900000E-01   1.00800           0
      2019 MEMB     15       DOPC     H17S     HAL2     0.900000E-01   1.00800           0
      2020 MEMB     15       DOPC     C218     CTL3    -0.270000       12.0110           0
      2021 MEMB     15       DOPC     H18R     HAL3     0.900000E-01   1.00800           0
      2022 MEMB     15       DOPC     H18S     HAL3     0.900000E-01   1.00800           0
      2023 MEMB     15       DOPC     H18T     HAL3     0.900000E-01   1.00800           0
      2024 MEMB     15       DOPC     C33      CTL2    -0.180000       12.0110           0
      2025 MEMB     15       DOPC     H3X      HAL2     0.900000E-01   1.00800           0
      2026 MEMB     15       DOPC     H3Y      HAL2     0.900000E-01   1.00800           0
      2027 MEMB     15       DOPC     C34      CTL2    -0.180000       12.0110           0
      2028 MEMB     15       DOPC     H4X      HAL2     0.900000E-01   1.00800           0
      2029 MEMB     15       DOPC     H4Y      HAL2     0.900000E-01   1.00800           0
      2030 MEMB     15       DOPC     C35      CTL2    -0.180000       12.0110           0
      2031 MEMB     15       DOPC     H5X      HAL2     0.900000E-01   1.00800           0
      2032 MEMB     15       DOPC     H5Y      HAL2     0.900000E-01   1.00800           0
      2033 MEMB     15       DOPC     C36      CTL2    -0.180000       12.0110           0
      2034 MEMB     15       DOPC     H6X      HAL2     0.900000E-01   1.00800           0
      2035 MEMB     15       DOPC     H6Y      HAL2     0.900000E-01   1.00800           0
      2036 MEMB     15       DOPC     C37      CTL2    -0.180000       12.0110           0
      2037 MEMB     15       DOPC     H7X      HAL2     0.900000E-01   1.00800           0
      2038 MEMB     15       DOPC     H7Y      HAL2     0.900000E-01   1.00800           0
      2039 MEMB     15       DOPC     C38      CTL2    -0.180000       12.0110           0
      2040 MEMB     15       DOPC     H8X      HAL2     0.900000E-01   1.00800           0
      2041 MEMB     15       DOPC     H8Y      HAL2     0.900000E-01   1.00800           0
      2042 MEMB     15       DOPC     C39      CEL1    -0.150000       12.0110           0
      2043 MEMB     15       DOPC     H9X      HEL1     0.150000       1.00800           0
      2044 MEMB     15       DOPC     C310     CEL1    -0.150000       12.0110           0
      2045 MEMB     15       DOPC     H10X     HEL1     0.150000       1.00800           0
      2046 MEMB     15       DOPC     C311     CTL2    -0.180000       12.0110           0
      2047 MEMB     15       DOPC     H11X     HAL2     0.900000E-01   1.00800           0
      2048 MEMB     15       DOPC     H11Y     HAL2     0.900000E-01   1.00800           0
      2049 MEMB     15       DOPC     C312     CTL2    -0.180000       12.0110           0
      2050 MEMB     15       DOPC     H12X     HAL2     0.900000E-01   1.00800           0
      2051 MEMB     15       DOPC     H12Y     HAL2     0.900000E-01   1.00800           0
      2052 MEMB     15       DOPC     C313     CTL2    -0.180000       12.0110           0
      2053 MEMB     15       DOPC     H13X     HAL2     0.900000E-01   1.00800           0
      2054 MEMB     15       DOPC     H13Y     HAL2     0.900000E-01   1.00800           0
      2055 MEMB     15       DOPC     C314     CTL2    -0.180000       12.0110           0
      2056 MEMB     15       DOPC     H14X     HAL2     0.900000E-01   1.00800           0
      2057 MEMB     15       DOPC     H14Y     HAL2     0.900000E-01   1.00800           0
      2058 MEMB     15       DOPC     C315     CTL2    -0.180000       12.0110           0
      2059 MEMB     15       DOPC     H15X     HAL2     0.900000E-01   1.00800           0
      2060 MEMB     15       DOPC     H15Y     HAL2     0.900000E-01   1.00800           0
      2061 MEMB     15       DOPC     C316     CTL2    -0.180000       12.0110           0
      2062 MEMB     15       DOPC     H16X     HAL2     0.900000E-01   1.00800           0
      2063 MEMB     15       DOPC     H16Y     HAL2     0.900000E-01   1.00800           0
      2064 MEMB     15       DOPC     C317     CTL2    -0.180000       12.0110           0
      2065 MEMB     15       DOPC     H17X     HAL2     0.900000E-01   1.00800           0
      2066 MEMB     15       DOPC     H17Y     HAL2     0.900000E-01   1.00800           0
      2067 MEMB     15       DOPC     C318     CTL3    -0.270000       12.0110           0
      2068 MEMB     15       DOPC     H18X     HAL3     0.900000E-01   1.00800           0
      2069 MEMB     15       DOPC     H18Y     HAL3     0.900000E-01   1.00800           0
      2070 MEMB     15       DOPC     H18Z     HAL3     0.900000E-01   1.00800           0
      2071 MEMB     16       DOPC     N        NTL     -0.600000       14.0070           0
      2072 MEMB     16       DOPC     C12      CTL2    -0.100000       12.0110           0
      2073 MEMB     16       DOPC     H12A     HL       0.250000       1.00800           0
      2074 MEMB     16       DOPC     H12B     HL       0.250000       1.00800           0
      2075 MEMB     16       DOPC     C13      CTL5    -0.350000       12.0110           0
      2076 MEMB     16       DOPC     H13A     HL       0.250000       1.00800           0
      2077 MEMB     16       DOPC     H13B     HL       0.250000       1.00800           0
      2078 MEMB     16       DOPC     H13C     HL       0.250000       1.00800           0
      2079 MEMB     16       DOPC     C14      CTL5    -0.350000       12.0110           0
      2080 MEMB     16       DOPC     H14A     HL       0.250000       1.00800           0
      2081 MEMB     16       DOPC     H14B     HL       0.250000       1.00800           0
      2082 MEMB     16       DOPC     H14C     HL       0.250000       1.00800           0
      2083 MEMB     16       DOPC     C15      CTL5    -0.350000       12.0110           0
      2084 MEMB     16       DOPC     H15A     HL       0.250000       1.00800           0
      2085 MEMB     16       DOPC     H15B     HL       0.250000       1.00800           0
      2086 MEMB     16       DOPC     H15C     HL       0.250000       1.00800           0
      2087 MEMB     16       DOPC     C11      CTL2    -0.800000E-01   12.0110           0
      2088 MEMB     16       DOPC     H11A     HAL2     0.900000E-01   1.00800           0
      2089 MEMB     16       DOPC     H11B     HAL2     0.900000E-01   1.00800           0
      2090 MEMB     16       DOPC     P        PL        1.50000       30.9740           0
      2091 MEMB     16       DOPC     O13      O2L     -0.780000       15.9994           0
      2092 MEMB     16       DOPC     O14      O2L     -0.780000       15.9994           0
      2093 MEMB     16       DOPC     O12      OSLP    -0.570000       15.9994           0
      2094 MEMB     16       DOPC     O11      OSLP    -0.570000       15.9994           0
      2095 MEMB     16       DOPC     C1       CTL2    -0.800000E-01   12.0110           0
      2096 MEMB     16       DOPC     HA       HAL2     0.900000E-01   1.00800           0
      2097 MEMB     16       DOPC     HB       HAL2     0.900000E-01   1.00800           0
      2098 MEMB     16       DOPC     C2       CTL1     0.170000       12.0110           0
      2099 MEMB     16       DOPC     HS       HAL1     0.900000E-01   1.00800           0
      2100 MEMB     16       DOPC     O21      OSL     -0.490000       15.9994           0
      2101 MEMB     16       DOPC     C21      CL       0.900000       12.0110           0
      2102 MEMB     16       DOPC     O22      OBL     -0.630000       15.9994           0
      2103 MEMB     16       DOPC     C22      CTL2    -0.220000       12.0110           0
      2104 MEMB     16       DOPC     H2R      HAL2     0.900000E-01   1.00800           0
      2105 MEMB     16       DOPC     H2S      HAL2     0.900000E-01   1.00800           0
      2106 MEMB     16       DOPC     C3       CTL2     0.800000E-01   12.0110           0
      2107 MEMB     16       DOPC     HX       HAL2     0.900000E-01   1.00800           0
      2108 MEMB     16       DOPC     HY       HAL2     0.900000E-01   1.00800           0
      2109 MEMB     16       DOPC     O31      OSL     -0.490000       15.9994           0
      2110 MEMB     16       DOPC     C31      CL       0.900000       12.0110           0
      2111 MEMB     16       DOPC     O32      OBL     -0.630000       15.9994           0
      2112 MEMB     16       DOPC     C32      CTL2    -0.220000       12.0110           0
      2113 MEMB     16       DOPC     H2X      HAL2     0.900000E-01   1.00800           0
      2114 MEMB     16       DOPC     H2Y      HAL2     0.900000E-01   1.00800           0
      2115 MEMB     16       DOPC     C23      CTL2    -0.180000       12.0110           0
      2116 MEMB     16       DOPC     H3R      HAL2     0.900000E-01   1.00800           0
      2117 MEMB     16       DOPC     H3S      HAL2     0.900000E-01   1.00800           0
      2118 MEMB     16       DOPC     C24      CTL2    -0.180000       12.0110           0
      2119 MEMB     16       DOPC     H4R      HAL2     0.900000E-01   1.00800           0
      2120 MEMB     16       DOPC     H4S      HAL2     0.900000E-01   1.00800           0
      2121 MEMB     16       DOPC     C25      CTL2    -0.180000       12.0110           0
      2122 MEMB     16       DOPC     H5R      HAL2     0.900000E-01   1.00800           0
      2123 MEMB     16       DOPC     H5S      HAL2     0.900000E-01   1.00800           0
      2124 MEMB     16       DOPC     C26      CTL2    -0.180000       12.0110           0
      2125 MEMB     16       DOPC     H6R      HAL2     0.900000E-01   1.00800           0
      2126 MEMB     16       DOPC     H6S      HAL2     0.900000E-01   1.00800           0
      2127 MEMB     16       DOPC     C27      CTL2    -0.180000       12.0110           0
      2128 MEMB     16       DOPC     H7R      HAL2     0.900000E-01   1.00800           0
      2129 MEMB     16       DOPC     H7S      HAL2     0.900000E-01   1.00800           0
      2130 MEMB     16       DOPC     C28      CTL2    -0.180000       12.0110           0
      2131 MEMB     16       DOPC     H8R      HAL2     0.900000E-01   1.00800           0
      2132 MEMB     16       DOPC     H8S      HAL2     0.900000E-01   1.00800           0
      2133 MEMB     16       DOPC     C29      CEL1    -0.150000       12.0110           0
      2134 MEMB     16       DOPC     H9R      HEL1     0.150000       1.00800           0
      2135 MEMB     16       DOPC     C210     CEL1    -0.150000       12.0110           0
      2136 MEMB     16       DOPC     H10R     HEL1     0.150000       1.00800           0
      2137 MEMB     16       DOPC     C211     CTL2    -0.180000       12.0110           0
      2138 MEMB     16       DOPC     H11R     HAL2     0.900000E-01   1.00800           0
      2139 MEMB     16       DOPC     H11S     HAL2     0.900000E-01   1.00800           0
      2140 MEMB     16       DOPC     C212     CTL2    -0.180000       12.0110           0
      2141 MEMB     16       DOPC     H12R     HAL2     0.900000E-01   1.00800           0
      2142 MEMB     16       DOPC     H12S     HAL2     0.900000E-01   1.00800           0
      2143 MEMB     16       DOPC     C213     CTL2    -0.180000       12.0110           0
      2144 MEMB     16       DOPC     H13R     HAL2     0.900000E-01   1.00800           0
      2145 MEMB     16       DOPC     H13S     HAL2     0.900000E-01   1.00800           0
      2146 MEMB     16       DOPC     C214     CTL2    -0.180000       12.0110           0
      2147 MEMB     16       DOPC     H14R     HAL2     0.900000E-01   1.00800           0
      2148 MEMB     16       DOPC     H14S     HAL2     0.900000E-01   1.00800           0
      2149 MEMB     16       DOPC     C215     CTL2    -0.180000       12.0110           0
      2150 MEMB     16       DOPC     H15R     HAL2     0.900000E-01   1.00800           0
      2151 MEMB     16       DOPC     H15S     HAL2     0.900000E-01   1.00800           0
      2152 MEMB     16       DOPC     C216     CTL2    -0.180000       12.0110           0
      2153 MEMB     16       DOPC     H16R     HAL2     0.900000E-01   1.00800           0
      2154 MEMB     16       DOPC     H16S     HAL2     0.900000E-01   1.00800           0
      2155 MEMB     16       DOPC     C217     CTL2    -0.180000       12.0110           0
      2156 MEMB     16       DOPC     H17R     HAL2     0.900000E-01   1.00800           0
      2157 MEMB     16       DOPC     H17S     HAL2     0.900000E-01   1.00800           0
      2158 MEMB     16       DOPC     C218     CTL3    -0.270000       12.0110           0
      2159 MEMB     16       DOPC     H18R     HAL3     0.900000E-01   1.00800           0
      2160 MEMB     16       DOPC     H18S     HAL3     0.900000E-01   1.00800           0
      2161 MEMB     16       DOPC     H18T     HAL3     0.900000E-01   1.00800           0
      2162 MEMB     16       DOPC     C33      CTL2    -0.180000       12.0110           0
      2163 MEMB     16       DOPC     H3X      HAL2     0.900000E-01   1.00800           0
      2164 MEMB     16       DOPC     H3Y      HAL2     0.900000E-01   1.00800           0
      2165 MEMB     16       DOPC     C34      CTL2    -0.180000       12.0110           0
      2166 MEMB     16       DOPC     H4X      HAL2     0.900000E-01   1.00800           0
      2167 MEMB     16       DOPC     H4Y      HAL2     0.900000E-01   1.00800           0
      2168 MEMB     16       DOPC     C35      CTL2    -0.180000       12.0110           0
      2169 MEMB     16       DOPC     H5X      HAL2     0.900000E-01   1.00800           0
      2170 MEMB     16       DOPC     H5Y      HAL2     0.900000E-01   1.00800           0
      2171 MEMB     16       DOPC     C36      CTL2    -0.180000       12.0110           0
      2172 MEMB     16       DOPC     H6X      HAL2     0.900000E-01   1.00800           0
      2173 MEMB     16       DOPC     H6Y      HAL2     0.900000E-01   1.00800           0
      2174 MEMB     16       DOPC     C37      CTL2    -0.180000       12.0110           0
      2175 MEMB     16       DOPC     H7X      HAL2     0.900000E-01   1.00800           0
      2176 MEMB     16       DOPC     H7Y      HAL2     0.900000E-01   1.00800           0
      2177 MEMB     16       DOPC     C38      CTL2    -0.180000       12.0110           0
      2178 MEMB     16       DOPC     H8X      HAL2     0.900000E-01   1.00800           0
      2179 MEMB     16       DOPC     H8Y      HAL2     0.900000E-01   1.00800           0
      2180 MEMB     16       DOPC     C39      CEL1    -0.150000       12.0110           0
      2181 MEMB     16       DOPC     H9X      HEL1     0.150000       1.00800           0
      2182 MEMB     16       DOPC     C310     CEL1    -0.150000       12.0110           0
      2183 MEMB     16       DOPC     H10X     HEL1     0.150000       1.00800           0
      2184 MEMB     16       DOPC     C311     CTL2    -0.180000       12.0110           0
      2185 MEMB     16       DOPC     H11X     HAL2     0.900000E-01   1.00800           0
      2186 MEMB     16       DOPC     H11Y     HAL2     0.900000E-01   1.00800           0
      2187 MEMB     16       DOPC     C312     CTL2    -0.180000       12.0110           0
      2188 MEMB     16       DOPC     H12X     HAL2     0.900000E-01   1.00800           0
      2189 MEMB     16       DOPC     H12Y     HAL2     0.900000E-01   1.00800           0
      2190 MEMB     16       DOPC     C313     CTL2    -0.180000       12.0110           0
      2191 MEMB     16       DOPC     H13X     HAL2     0.900000E-01   1.00800           0
      2192 MEMB     16       DOPC     H13Y     HAL2     0.900000E-01   1.00800           0
      2193 MEMB     16       DOPC     C314     CTL2    -0.180000       12.0110           0
      2194 MEMB     16       DOPC     H14X     HAL2     0.900000E-01   1.00800           0
      2195 MEMB     16       DOPC     H14Y     HAL2     0.900000E-01   1.00800           0
      2196 MEMB     16       DOPC     C315     CTL2    -0.180000       12.0110           0
      2197 MEMB     16       DOPC     H15X     HAL2     0.900000E-01   1.00800           0
      2198 MEMB     16       DOPC     H15Y     HAL2     0.900000E-01   1.00800           0
      2199 MEMB     16       DOPC     C316     CTL2    -0.180000       12.0110           0
      2200 MEMB     16       DOPC     H16X     HAL2     0.900000E-01   1.00800           0
      2201 MEMB     16       DOPC     H16Y     HAL2     0.900000E-01   1.00800           0
      2202 MEMB     16       DOPC     C317     CTL2    -0.180000       12.0110           0
      2203 MEMB     16       DOPC     H17X     HAL2     0.900000E-01   1.00800           0
      2204 MEMB     16       DOPC     H17Y     HAL2     0.900000E-01   1.00800           0
      2205 MEMB     16       DOPC     C318     CTL3    -0.270000       12.0110           0
      2206 MEMB     16       DOPC     H18X     HAL3     0.900000E-01   1.00800           0
      2207 MEMB     16       DOPC     H18Y     HAL3     0.900000E-01   1.00800           0
      2208 MEMB     16       DOPC     H18Z     HAL3     0.900000E-01   1.00800           0
      2209 MEMB     17       DOPC     N        NTL     -0.600000       14.0070           0
      2210 MEMB     17       DOPC     C12      CTL2    -0.100000       12.0110           0
      2211 MEMB     17       DOPC     H12A     HL       0.250000       1.00800           0
      2212 MEMB     17       DOPC     H12B     HL       0.250000       1.00800           0
      2213 MEMB     17       DOPC     C13      CTL5    -0.350000       12.0110           0
      2214 MEMB     17       DOPC     H13A     HL       0.250000       1.00800           0
      2215 MEMB     17       DOPC     H13B     HL       0.250000       1.00800           0
      2216 MEMB     17       DOPC     H13C     HL       0.250000       1.00800           0
      2217 MEMB     17       DOPC     C14      CTL5    -0.350000       12.0110           0
      2218 MEMB     17       DOPC     H14A     HL       0.250000       1.00800           0
      2219 MEMB     17       DOPC     H14B     HL       0.250000       1.00800           0
      2220 MEMB     17       DOPC     H14C     HL       0.250000       1.00800           0
      2221 MEMB     17       DOPC     C15      CTL5    -0.350000       12.0110           0
      2222 MEMB     17       DOPC     H15A     HL       0.250000       1.00800           0
      2223 MEMB     17       DOPC     H15B     HL       0.250000       1.00800           0
      2224 MEMB     17       DOPC     H15C     HL       0.250000       1.00800           0
      2225 MEMB     17       DOPC     C11      CTL2    -0.800000E-01   12.0110           0
      2226 MEMB     17       DOPC     H11A     HAL2     0.900000E-01   1.00800           0
      2227 MEMB     17       DOPC     H11B     HAL2     0.900000E-01   1.00800           0
      2228 MEMB     17       DOPC     P        PL        1.50000       30.9740           0
      2229 MEMB     17       DOPC     O13      O2L     -0.780000       15.9994           0
      2230 MEMB     17       DOPC     O14      O2L     -0.780000       15.9994           0
      2231 MEMB     17       DOPC     O12      OSLP    -0.570000       15.9994           0
      2232 MEMB     17       DOPC     O11      OSLP    -0.570000       15.9994           0
      2233 MEMB     17       DOPC     C1       CTL2    -0.800000E-01   12.0110           0
      2234 MEMB     17       DOPC     HA       HAL2     0.900000E-01   1.00800           0
      2235 MEMB     17       DOPC     HB       HAL2     0.900000E-01   1.00800           0
      2236 MEMB     17       DOPC     C2       CTL1     0.170000       12.0110           0
      2237 MEMB     17       DOPC     HS       HAL1     0.900000E-01   1.00800           0
      2238 MEMB     17       DOPC     O21      OSL     -0.490000       15.9994           0
      2239 MEMB     17       DOPC     C21      CL       0.900000       12.0110           0
      2240 MEMB     17       DOPC     O22      OBL     -0.630000       15.9994           0
      2241 MEMB     17       DOPC     C22      CTL2    -0.220000       12.0110           0
      2242 MEMB     17       DOPC     H2R      HAL2     0.900000E-01   1.00800           0
      2243 MEMB     17       DOPC     H2S      HAL2     0.900000E-01   1.00800           0
      2244 MEMB     17       DOPC     C3       CTL2     0.800000E-01   12.0110           0
      2245 MEMB     17       DOPC     HX       HAL2     0.900000E-01   1.00800           0
      2246 MEMB     17       DOPC     HY       HAL2     0.900000E-01   1.00800           0
      2247 MEMB     17       DOPC     O31      OSL     -0.490000       15.9994           0
      2248 MEMB     17       DOPC     C31      CL       0.900000       12.0110           0
      2249 MEMB     17       DOPC     O32      OBL     -0.630000       15.9994           0
      2250 MEMB     17       DOPC     C32      CTL2    -0.220000       12.0110           0
      2251 MEMB     17       DOPC     H2X      HAL2     0.900000E-01   1.00800           0
      2252 MEMB     17       DOPC     H2Y      HAL2     0.900000E-01   1.00800           0
      2253 MEMB     17       DOPC     C23      CTL2    -0.180000       12.0110           0
      2254 MEMB     17       DOPC     H3R      HAL2     0.900000E-01   1.00800           0
      2255 MEMB     17       DOPC     H3S      HAL2     0.900000E-01   1.00800           0
      2256 MEMB     17       DOPC     C24      CTL2    -0.180000       12.0110           0
      2257 MEMB     17       DOPC     H4R      HAL2     0.900000E-01   1.00800           0
      2258 MEMB     17       DOPC     H4S      HAL2     0.900000E-01   1.00800           0
      2259 MEMB     17       DOPC     C25      CTL2    -0.180000       12.0110           0
      2260 MEMB     17       DOPC     H5R      HAL2     0.900000E-01   1.00800           0
      2261 MEMB     17       DOPC     H5S      HAL2     0.900000E-01   1.00800           0
      2262 MEMB     17       DOPC     C26      CTL2    -0.180000       12.0110           0
      2263 MEMB     17       DOPC     H6R      HAL2     0.900000E-01   1.00800           0
      2264 MEMB     17       DOPC     H6S      HAL2     0.900000E-01   1.00800           0
      2265 MEMB     17       DOPC     C27      CTL2    -0.180000       12.0110           0
      2266 MEMB     17       DOPC     H7R      HAL2     0.900000E-01   1.00800           0
      2267 MEMB     17       DOPC     H7S      HAL2     0.900000E-01   1.00800           0
      2268 MEMB     17       DOPC     C28      CTL2    -0.180000       12.0110           0
      2269 MEMB     17       DOPC     H8R      HAL2     0.900000E-01   1.00800           0
      2270 MEMB     17       DOPC     H8S      HAL2     0.900000E-01   1.00800           0
      2271 MEMB     17       DOPC     C29      CEL1    -0.150000       12.0110           0
      2272 MEMB     17       DOPC     H9R      HEL1     0.150000       1.00800           0
      2273 MEMB     17       DOPC     C210     CEL1    -0.150000       12.0110           0
      2274 MEMB     17       DOPC     H10R     HEL1     0.150000       1.00800           0
      2275 MEMB     17       DOPC     C211     CTL2    -0.180000       12.0110           0
      2276 MEMB     17       DOPC     H11R     HAL2     0.900000E-01   1.00800           0
      2277 MEMB     17       DOPC     H11S     HAL2     0.900000E-01   1.00800           0
      2278 MEMB     17       DOPC     C212     CTL2    -0.180000       12.0110           0
      2279 MEMB     17       DOPC     H12R     HAL2     0.900000E-01   1.00800           0
      2280 MEMB     17       DOPC     H12S     HAL2     0.900000E-01   1.00800           0
      2281 MEMB     17       DOPC     C213     CTL2    -0.180000       12.0110           0
      2282 MEMB     17       DOPC     H13R     HAL2     0.900000E-01   1.00800           0
      2283 MEMB     17       DOPC     H13S     HAL2     0.900000E-01   1.00800           0
      2284 MEMB     17       DOPC     C214     CTL2    -0.180000       12.0110           0
      2285 MEMB     17       DOPC     H14R     HAL2     0.900000E-01   1.00800           0
      2286 MEMB     17       DOPC     H14S     HAL2     0.900000E-01   1.00800           0
      2287 MEMB     17       DOPC     C215     CTL2    -0.180000       12.0110           0
      2288 MEMB     17       DOPC     H15R     HAL2     0.900000E-01   1.00800           0
      2289 MEMB     17       DOPC     H15S     HAL2     0.900000E-01   1.00800           0
      2290 MEMB     17       DOPC     C216     CTL2    -0.180000       12.0110           0
      2291 MEMB     17       DOPC     H16R     HAL2     0.900000E-01   1.00800           0
      2292 MEMB     17       DOPC     H16S     HAL2     0.900000E-01   1.00800           0
      2293 MEMB     17       DOPC     C217     CTL2    -0.180000       12.0110           0
      2294 MEMB     17       DOPC     H17R     HAL2     0.900000E-01   1.00800           0
      2295 MEMB     17       DOPC     H17S     HAL2     0.900000E-01   1.00800           0
      2296 MEMB     17       DOPC     C218     CTL3    -0.270000       12.0110           0
      2297 MEMB     17       DOPC     H18R     HAL3     0.900000E-01   1.00800           0
      2298 MEMB     17       DOPC     H18S     HAL3     0.900000E-01   1.00800           0
      2299 MEMB     17       DOPC     H18T     HAL3     0.900000E-01   1.00800           0
      2300 MEMB     17       DOPC     C33      CTL2    -0.180000       12.0110           0
      2301 MEMB     17       DOPC     H3X      HAL2     0.900000E-01   1.00800           0
      2302 MEMB     17       DOPC     H3Y      HAL2     0.900000E-01   1.00800           0
      2303 MEMB     17       DOPC     C34      CTL2    -0.180000       12.0110           0
      2304 MEMB     17       DOPC     H4X      HAL2     0.900000E-01   1.00800           0
      2305 MEMB     17       DOPC     H4Y      HAL2     0.900000E-01   1.00800           0
      2306 MEMB     17       DOPC     C35      CTL2    -0.180000       12.0110           0
      2307 MEMB     17       DOPC     H5X      HAL2     0.900000E-01   1.00800           0
      2308 MEMB     17       DOPC     H5Y      HAL2     0.900000E-01   1.00800           0
      2309 MEMB     17       DOPC     C36      CTL2    -0.180000       12.0110           0
      2310 MEMB     17       DOPC     H6X      HAL2     0.900000E-01   1.00800           0
      2311 MEMB     17       DOPC     H6Y      HAL2     0.900000E-01   1.00800           0
      2312 MEMB     17       DOPC     C37      CTL2    -0.180000       12.0110           0
      2313 MEMB     17       DOPC     H7X      HAL2     0.900000E-01   1.00800           0
      2314 MEMB     17       DOPC     H7Y      HAL2     0.900000E-01   1.00800           0
      2315 MEMB     17       DOPC     C38      CTL2    -0.180000       12.0110           0
      2316 MEMB     17       DOPC     H8X      HAL2     0.900000E-01   1.00800           0
      2317 MEMB     17       DOPC     H8Y      HAL2     0.900000E-01   1.00800           0
      2318 MEMB     17       DOPC     C39      CEL1    -0.150000       12.0110           0
      2319 MEMB     17       DOPC     H9X      HEL1     0.150000       1.00800           0
      2320 MEMB     17       DOPC     C310     CEL1    -0.150000       12.0110           0
      2321 MEMB     17       DOPC     H10X     HEL1     0.150000       1.00800           0
      2322 MEMB     17       DOPC     C311     CTL2    -0.180000       12.0110           0
      2323 MEMB     17       DOPC     H11X     HAL2     0.900000E-01   1.00800           0
      2324 MEMB     17       DOPC     H11Y     HAL2     0.900000E-01   1.00800           0
      2325 MEMB     17       DOPC     C312     CTL2    -0.180000       12.0110           0
      2326 MEMB     17       DOPC     H12X     HAL2     0.900000E-01   1.00800           0
      2327 MEMB     17       DOPC     H12Y     HAL2     0.900000E-01   1.00800           0
      2328 MEMB     17       DOPC     C313     CTL2    -0.180000       12.0110           0
      2329 MEMB     17       DOPC     H13X     HAL2     0.900000E-01   1.00800           0
      2330 MEMB     17       DOPC     H13Y     HAL2     0.900000E-01   1.00800           0
      2331 MEMB     17       DOPC     C314     CTL2    -0.180000       12.0110           0
      2332 MEMB     17       DOPC     H14X     HAL2     0.900000E-01   1.00800           0
      2333 MEMB     17       DOPC     H14Y     HAL2     0.900000E-01   1.00800           0
      2334 MEMB     17       DOPC     C315     CTL2    -0.180000       12.0110           0
      2335 MEMB     17       DOPC     H15X     HAL2     0.900000E-01   1.00800           0
      2336 MEMB     17       DOPC     H15Y     HAL2     0.900000E-01   1.00800           0
      2337 MEMB     17       DOPC     C316     CTL2    -0.180000       12.0110           0
      2338 MEMB     17       DOPC     H16X     HAL2     0.900000E-01   1.00800           0
      2339 MEMB     17       DOPC     H16Y     HAL2     0.900000E-01   1.00800           0
      2340 MEMB     17       DOPC     C317     CTL2    -0.180000       12.0110           0
      2341 MEMB     17       DOPC     H17X     HAL2     0.900000E-01   1.00800           0
      2342 MEMB     17       DOPC     H17Y     HAL2     0.900000E-01   1.00800           0
      2343 MEMB     17       DOPC     C318     CTL3    -0.270000       12.0110           0
      2344 MEMB     17       DOPC     H18X     HAL3     0.900000E-01   1.00800           0
      2345 MEMB     17       DOPC     H18Y     HAL3     0.900000E-01   1.00800           0
      2346 MEMB     17       DOPC     H18Z     HAL3     0.900000E-01   1.00800           0
      2347 MEMB     18       DOPC     N        NTL     -0.600000       14.0070           0
      2348 MEMB     18       DOPC     C12      CTL2    -0.100000       12.0110           0
      2349 MEMB     18       DOPC     H12A     HL       0.250000       1.00800           0
      2350 MEMB     18       DOPC     H12B     HL       0.250000       1.00800           0
      2351 MEMB     18       DOPC     C13      CTL5    -0.350000       12.0110           0
      2352 MEMB     18       DOPC     H13A     HL       0.250000       1.00800           0
      2353 MEMB     18       DOPC     H13B     HL       0.250000       1.00800           0
      2354 MEMB     18       DOPC     H13C     HL       0.250000       1.00800           0
      2355 MEMB     18       DOPC     C14      CTL5    -0.350000       12.0110           0
      2356 MEMB     18       DOPC     H14A     HL       0.250000       1.00800           0
      2357 MEMB     18       DOPC     H14B     HL       0.250000       1.00800           0
      2358 MEMB     18       DOPC     H14C     HL       0.250000       1.00800           0
      2359 MEMB     18       DOPC     C15      CTL5    -0.350000       12.0110           0
      2360 MEMB     18       DOPC     H15A     HL       0.250000       1.00800           0
      2361 MEMB     18       DOPC     H15B     HL       0.250000       1.00800           0
      2362 MEMB     18       DOPC     H15C     HL       0.250000       1.00800           0
      2363 MEMB     18       DOPC     C11      CTL2    -0.800000E-01   12.0110           0
      2364 MEMB     18       DOPC     H11A     HAL2     0.900000E-01   1.00800           0
      2365 MEMB     18       DOPC     H11B     HAL2     0.900000E-01   1.00800           0
      2366 MEMB     18       DOPC     P        PL        1.50000       30.9740           0
      2367 MEMB     18       DOPC     O13      O2L     -0.780000       15.9994           0
      2368 MEMB     18       DOPC     O14      O2L     -0.780000       15.9994           0
      2369 MEMB     18       DOPC     O12      OSLP    -0.570000       15.9994           0
      2370 MEMB     18       DOPC     O11      OSLP    -0.570000       15.9994           0
      2371 MEMB     18       DOPC     C1       CTL2    -0.800000E-01   12.0110           0
      2372 MEMB     18       DOPC     HA       HAL2     0.900000E-01   1.00800           0
      2373 MEMB     18       DOPC     HB       HAL2     0.900000E-01   1.00800           0
      2374 MEMB     18       DOPC     C2       CTL1     0.170000       12.0110           0
      2375 MEMB     18       DOPC     HS       HAL1     0.900000E-01   1.00800           0
      2376 MEMB     18       DOPC     O21      OSL     -0.490000       15.9994           0
      2377 MEMB     18       DOPC     C21      CL       0.900000       12.0110           0
      2378 MEMB     18       DOPC     O22      OBL     -0.630000       15.9994           0
      2379 MEMB     18       DOPC     C22      CTL2    -0.220000       12.0110           0
      2380 MEMB     18       DOPC     H2R      HAL2     0.900000E-01   1.00800           0
      2381 MEMB     18       DOPC     H2S      HAL2     0.900000E-01   1.00800           0
      2382 MEMB     18       DOPC     C3       CTL2     0.800000E-01   12.0110           0
      2383 MEMB     18       DOPC     HX       HAL2     0.900000E-01   1.00800           0
      2384 MEMB     18       DOPC     HY       HAL2     0.900000E-01   1.00800           0
      2385 MEMB     18       DOPC     O31      OSL     -0.490000       15.9994           0
      2386 MEMB     18       DOPC     C31      CL       0.900000       12.0110           0
      2387 MEMB     18       DOPC     O32      OBL     -0.630000       15.9994           0
      2388 MEMB     18       DOPC     C32      CTL2    -0.220000       12.0110           0
      2389 MEMB     18       DOPC     H2X      HAL2     0.900000E-01   1.00800           0
      2390 MEMB     18       DOPC     H2Y      HAL2     0.900000E-01   1.00800           0
      2391 MEMB     18       DOPC     C23      CTL2    -0.180000       12.0110           0
      2392 MEMB     18       DOPC     H3R      HAL2     0.900000E-01   1.00800           0
      2393 MEMB     18       DOPC     H3S      HAL2     0.900000E-01   1.00800           0
      2394 MEMB     18       DOPC     C24      CTL2    -0.180000       12.0110           0
      2395 MEMB     18       DOPC     H4R      HAL2     0.900000E-01   1.00800           0
      2396 MEMB     18       DOPC     H4S      HAL2     0.900000E-01   1.00800           0
      2397 MEMB     18       DOPC     C25      CTL2    -0.180000       12.0110           0
      2398 MEMB     18       DOPC     H5R      HAL2     0.900000E-01   1.00800           0
      2399 MEMB     18       DOPC     H5S      HAL2     0.900000E-01   1.00800           0
      2400 MEMB     18       DOPC     C26      CTL2    -0.180000       12.0110           0
      2401 MEMB     18       DOPC     H6R      HAL2     0.900000E-01   1.00800           0
      2402 MEMB     18       DOPC     H6S      HAL2     0.900000E-01   1.00800           0
      2403 MEMB     18       DOPC     C27      CTL2    -0.180000       12.0110           0
      2404 MEMB     18       DOPC     H7R      HAL2     0.900000E-01   1.00800           0
      2405 MEMB     18       DOPC     H7S      HAL2     0.900000E-01   1.00800           0
      2406 MEMB     18       DOPC     C28      CTL2    -0.180000       12.0110           0
      2407 MEMB     18       DOPC     H8R      HAL2     0.900000E-01   1.00800           0
      2408 MEMB     18       DOPC     H8S      HAL2     0.900000E-01   1.00800           0
      2409 MEMB     18       DOPC     C29      CEL1    -0.150000       12.0110           0
      2410 MEMB     18       DOPC     H9R      HEL1     0.150000       1.00800           0
      2411 MEMB     18       DOPC     C210     CEL1    -0.150000       12.0110           0
      2412 MEMB     18       DOPC     H10R     HEL1     0.150000       1.00800           0
      2413 MEMB     18       DOPC     C211     CTL2    -0.180000       12.0110           0
      2414 MEMB     18       DOPC     H11R     HAL2     0.900000E-01   1.00800           0
      2415 MEMB     18       DOPC     H11S     HAL2     0.900000E-01   1.00800           0
      2416 MEMB     18       DOPC     C212     CTL2    -0.180000       12.0110           0
      2417 MEMB     18       DOPC     H12R     HAL2     0.900000E-01   1.00800           0
      2418 MEMB     18       DOPC     H12S     HAL2     0.900000E-01   1.00800           0
      2419 MEMB     18       DOPC     C213     CTL2    -0.180000       12.0110           0
      2420 MEMB     18       DOPC     H13R     HAL2     0.900000E-01   1.00800           0
      2421 MEMB     18       DOPC     H13S     HAL2     0.900000E-01   1.00800           0
      2422 MEMB     18       DOPC     C214     CTL2    -0.180000       12.0110           0
      2423 MEMB     18       DOPC     H14R     HAL2     0.900000E-01   1.00800           0
      2424 MEMB     18       DOPC     H14S     HAL2     0.900000E-01   1.00800           0
      2425 MEMB     18       DOPC     C215     CTL2    -0.180000       12.0110           0
      2426 MEMB     18       DOPC     H15R     HAL2     0.900000E-01   1.00800           0
      2427 MEMB     18       DOPC     H15S     HAL2     0.900000E-01   1.00800           0
      2428 MEMB     18       DOPC     C216     CTL2    -0.180000       12.0110           0
      2429 MEMB     18       DOPC     H16R     HAL2     0.900000E-01   1.00800           0
      2430 MEMB     18       DOPC     H16S     HAL2     0.900000E-01   1.00800           0
      2431 MEMB     18       DOPC     C217     CTL2    -0.180000       12.0110           0
      2432 MEMB     18       DOPC     H17R     HAL2     0.900000E-01   1.00800           0
      2433 MEMB     18       DOPC     H17S     HAL2     0.900000E-01   1.00800           0
      2434 MEMB     18       DOPC     C218     CTL3    -0.270000       12.0110           0
      2435 MEMB     18       DOPC     H18R     HAL3     0.900000E-01   1.00800           0
      2436 MEMB     18       DOPC     H18S     HAL3     0.900000E-01   1.00800           0
      2437 MEMB     18       DOPC     H18T     HAL3     0.900000E-01   1.00800           0
      2438 MEMB     18       DOPC     C33      CTL2    -0.180000       12.0110           0
      2439 MEMB     18       DOPC     H3X      HAL2     0.900000E-01   1.00800           0
      2440 MEMB     18       DOPC     H3Y      HAL2     0.900000E-01   1.00800           0
      2441 MEMB     18       DOPC     C34      CTL2    -0.180000       12.0110           0
      2442 MEMB     18       DOPC     H4X      HAL2     0.900000E-01   1.00800           0
      2443 MEMB     18       DOPC     H4Y      HAL2     0.900000E-01   1.00800           0
      2444 MEMB     18       DOPC     C35      CTL2    -0.180000       12.0110           0
      2445 MEMB     18       DOPC     H5X      HAL2     0.900000E-01   1.00800           0
      2446 MEMB     18       DOPC     H5Y      HAL2     0.900000E-01   1.00800           0
      2447 MEMB     18       DOPC     C36      CTL2    -0.180000       12.0110           0
      2448 MEMB     18       DOPC     H6X      HAL2     0.900000E-01   1.00800           0
      2449 MEMB     18       DOPC     H6Y      HAL2     0.900000E-01   1.00800           0
      2450 MEMB     18       DOPC     C37      CTL2    -0.180000       12.0110           0
      2451 MEMB     18       DOPC     H7X      HAL2     0.900000E-01   1.00800           0
      2452 MEMB     18       DOPC     H7Y      HAL2     0.900000E-01   1.00800           0
      2453 MEMB     18       DOPC     C38      CTL2    -0.180000       12.0110           0
      2454 MEMB     18       DOPC     H8X      HAL2     0.900000E-01   1.00800           0
      2455 MEMB     18       DOPC     H8Y      HAL2     0.900000E-01   1.00800           0
      2456 MEMB     18       DOPC     C39      CEL1    -0.150000       12.0110           0
      2457 MEMB     18       DOPC     H9X      HEL1     0.150000       1.00800           0
      2458 MEMB     18       DOPC     C310     CEL1    -0.150000       12.0110           0
      2459 MEMB     18       DOPC     H10X     HEL1     0.150000       1.00800           0
      2460 MEMB     18       DOPC     C311     CTL2    -0.180000       12.0110           0
      2461 MEMB     18       DOPC     H11X     HAL2     0.900000E-01   1.00800           0
      2462 MEMB     18       DOPC     H11Y     HAL2     0.900000E-01   1.00800           0
      2463 MEMB     18       DOPC     C312     CTL2    -0.180000       12.0110           0
      2464 MEMB     18       DOPC     H12X     HAL2     0.900000E-01   1.00800           0
      2465 MEMB     18       DOPC     H12Y     HAL2     0.900000E-01   1.00800           0
      2466 MEMB     18       DOPC     C313     CTL2    -0.180000       12.0110           0
      2467 MEMB     18       DOPC     H13X     HAL2     0.900000E-01   1.00800           0
      2468 MEMB     18       DOPC     H13Y     HAL2     0.900000E-01   1.00800           0
      2469 MEMB     18       DOPC     C314     CTL2    -0.180000       12.0110           0
      2470 MEMB     18       DOPC     H14X     HAL2     0.900000E-01   1.00800           0
      2471 MEMB     18       DOPC     H14Y     HAL2     0.900000E-01   1.00800           0
      2472 MEMB     18       DOPC     C315     CTL2    -0.180000       12.0110           0
      2473 MEMB     18       DOPC     H15X     HAL2     0.900000E-01   1.00800           0
      2474 MEMB     18       DOPC     H15Y     HAL2     0.900000E-01   1.00800           0
      2475 MEMB     18       DOPC     C316     CTL2    -0.180000       12.0110           0
      2476 MEMB     18       DOPC     H16X     HAL2     0.900000E-01   1.00800           0
      2477 MEMB     18       DOPC     H16Y     HAL2     0.900000E-01   1.00800           0
      2478 MEMB     18       DOPC     C317     CTL2    -0.180000       12.0110           0
      2479 MEMB     18       DOPC     H17X     HAL2     0.900000E-01   1.00800           0
      2480 MEMB     18       DOPC     H17Y     HAL2     0.900000E-01   1.00800           0
      2481 MEMB     18       DOPC     C318     CTL3    -0.270000       12.0110           0
      2482 MEMB     18       DOPC     H18X     HAL3     0.900000E-01   1.00800           0
      2483 MEMB     18       DOPC     H18Y     HAL3     0.900000E-01   1.00800           0
      2484 MEMB     18       DOPC     H18Z     HAL3     0.900000E-01   1.00800           0
      2485 MEMB     19       DOPC     N        NTL     -0.600000       14.0070           0
      2486 MEMB     19       DOPC     C12      CTL2    -0.100000       12.0110           0
      2487 MEMB     19       DOPC     H12A     HL       0.250000       1.00800           0
      2488 MEMB     19       DOPC     H12B     HL       0.250000       1.00800           0
      2489 MEMB     19       DOPC     C13      CTL5    -0.350000       12.0110           0
      2490 MEMB     19       DOPC     H13A     HL       0.250000       1.00800           0
      2491 MEMB     19       DOPC     H13B     HL       0.250000       1.00800           0
      2492 MEMB     19       DOPC     H13C     HL       0.250000       1.00800           0
      2493 MEMB     19       DOPC     C14      CTL5    -0.350000       12.0110           0
      2494 MEMB     19       DOPC     H14A     HL       0.250000       1.00800           0
      2495 MEMB     19       DOPC     H14B     HL       0.250000       1.00800           0
      2496 MEMB     19       DOPC     H14C     HL       0.250000       1.00800           0
      2497 MEMB     19       DOPC     C15      CTL5    -0.350000       12.0110           0
      2498 MEMB     19       DOPC     H15A     HL       0.250000       1.00800           0
      2499 MEMB     19       DOPC     H15B     HL       0.250000       1.00800           0
      2500 MEMB     19       DOPC     H15C     HL       0.250000       1.00800           0
      2501 MEMB     19       DOPC     C11      CTL2    -0.800000E-01   12.0110           0
      2502 MEMB     19       DOPC     H11A     HAL2     0.900000E-01   1.00800           0
      2503 MEMB     19       DOPC     H11B     HAL2     0.900000E-01   1.00800           0
      2504 MEMB     19       DOPC     P        PL        1.50000       30.9740           0
      2505 MEMB     19       DOPC     O13      O2L     -0.780000       15.9994           0
      2506 MEMB     19       DOPC     O14      O2L     -0.780000       15.9994           0
      2507 MEMB     19       DOPC     O12      OSLP    -0.570000       15.9994           0
      2508 MEMB     19       DOPC     O11      OSLP    -0.570000       15.9994           0
      2509 MEMB     19       DOPC     C1       CTL2    -0.800000E-01   12.0110           0
      2510 MEMB     19       DOPC     HA       HAL2     0.900000E-01   1.00800           0
      2511 MEMB     19       DOPC     HB       HAL2     0.900000E-01   1.00800           0
      2512 MEMB     19       DOPC     C2       CTL1     0.170000       12.0110           0
      2513 MEMB     19       DOPC     HS       HAL1     0.900000E-01   1.00800           0
      2514 MEMB     19       DOPC     O21      OSL     -0.490000       15.9994           0
      2515 MEMB     19       DOPC     C21      CL       0.900000       12.0110           0
      2516 MEMB     19       DOPC     O22      OBL     -0.630000       15.9994           0
      2517 MEMB     19       DOPC     C22      CTL2    -0.220000       12.0110           0
      2518 MEMB     19       DOPC     H2R      HAL2     0.900000E-01   1.00800           0
      2519 MEMB     19       DOPC     H2S      HAL2     0.900000E-01   1.00800           0
      2520 MEMB     19       DOPC     C3       CTL2     0.800000E-01   12.0110           0
      2521 MEMB     19       DOPC     HX       HAL2     0.900000E-01   1.00800           0
      2522 MEMB     19       DOPC     HY       HAL2     0.900000E-01   1.00800           0
      2523 MEMB     19       DOPC     O31      OSL     -0.490000       15.9994           0
      2524 MEMB     19       DOPC     C31      CL       0.900000       12.0110           0
      2525 MEMB     19       DOPC     O32      OBL     -0.630000       15.9994           0
      2526 MEMB     19       DOPC     C32      CTL2    -0.220000       12.0110           0
      2527 MEMB     19       DOPC     H2X      HAL2     0.900000E-01   1.00800           0
      2528 MEMB     19       DOPC     H2Y      HAL2     0.900000E-01   1.00800           0
      2529 MEMB     19       DOPC     C23      CTL2    -0.180000       12.0110           0
      2530 MEMB     19       DOPC     H3R      HAL2     0.900000E-01   1.00800           0
      2531 MEMB     19       DOPC     H3S      HAL2     0.900000E-01   1.00800           0
      2532 MEMB     19       DOPC     C24      CTL2    -0.180000       12.0110           0
      2533 MEMB     19       DOPC     H4R      HAL2     0.900000E-01   1.00800           0
      2534 MEMB     19       DOPC     H4S      HAL2     0.900000E-01   1.00800           0
      2535 MEMB     19       DOPC     C25      CTL2    -0.180000       12.0110           0
      2536 MEMB     19       DOPC     H5R      HAL2     0.900000E-01   1.00800           0
      2537 MEMB     19       DOPC     H5S      HAL2     0.900000E-01   1.00800           0
      2538 MEMB     19       DOPC     C26      CTL2    -0.180000       12.0110           0
      2539 MEMB     19       DOPC     H6R      HAL2     0.900000E-01   1.00800           0
      2540 MEMB     19       DOPC     H6S      HAL2     0.900000E-01   1.00800           0
      2541 MEMB     19       DOPC     C27      CTL2    -0.180000       12.0110           0
      2542 MEMB     19       DOPC     H7R      HAL2     0.900000E-01   1.00800           0
      2543 MEMB     19       DOPC     H7S      HAL2     0.900000E-01   1.00800           0
      2544 MEMB     19       DOPC     C28      CTL2    -0.180000       12.0110           0
      2545 MEMB     19       DOPC     H8R      HAL2     0.900000E-01   1.00800           0
      2546 MEMB     19       DOPC     H8S      HAL2     0.900000E-01   1.00800           0
      2547 MEMB     19       DOPC     C29      CEL1    -0.150000       12.0110           0
      2548 MEMB     19       DOPC     H9R      HEL1     0.150000       1.00800           0
      2549 MEMB     19       DOPC     C210     CEL1    -0.150000       12.0110           0
      2550 MEMB     19       DOPC     H10R     HEL1     0.150000       1.00800           0
      2551 MEMB     19       DOPC     C211     CTL2    -0.180000       12.0110           0
      2552 MEMB     19       DOPC     H11R     HAL2     0.900000E-01   1.00800           0
      2553 MEMB     19       DOPC     H11S     HAL2     0.900000E-01   1.00800           0
      2554 MEMB     19       DOPC     C212     CTL2    -0.180000       12.0110           0
      2555 MEMB     19       DOPC     H12R     HAL2     0.900000E-01   1.00800           0
      2556 MEMB     19       DOPC     H12S     HAL2     0.900000E-01   1.00800           0
      2557 MEMB     19       DOPC     C213     CTL2    -0.180000       12.0110           0
      2558 MEMB     19       DOPC     H13R     HAL2     0.900000E-01   1.00800           0
      2559 MEMB     19       DOPC     H13S     HAL2     0.900000E-01   1.00800           0
      2560 MEMB     19       DOPC     C214     CTL2    -0.180000       12.0110           0
      2561 MEMB     19       DOPC     H14R     HAL2     0.900000E-01   1.00800           0
      2562 MEMB     19       DOPC     H14S     HAL2     0.900000E-01   1.00800           0
      2563 MEMB     19       DOPC     C215     CTL2    -0.180000       12.0110           0
      2564 MEMB     19       DOPC     H15R     HAL2     0.900000E-01   1.00800           0
      2565 MEMB     19       DOPC     H15S     HAL2     0.900000E-01   1.00800           0
      2566 MEMB     19       DOPC     C216     CTL2    -0.180000       12.0110           0
      2567 MEMB     19       DOPC     H16R     HAL2     0.900000E-01   1.00800           0
      2568 MEMB     19       DOPC     H16S     HAL2     0.900000E-01   1.00800           0
      2569 MEMB     19       DOPC     C217     CTL2    -0.180000       12.0110           0
      2570 MEMB     19       DOPC     H17R     HAL2     0.900000E-01   1.00800           0
      2571 MEMB     19       DOPC     H17S     HAL2     0.900000E-01   1.00800           0
      2572 MEMB     19       DOPC     C218     CTL3    -0.270000       12.0110           0
      2573 MEMB     19       DOPC     H18R     HAL3     0.900000E-01   1.00800           0
      2574 MEMB     19       DOPC     H18S     HAL3     0.900000E-01   1.00800           0
      2575 MEMB     19       DOPC     H18T     HAL3     0.900000E-01   1.00800           0
      2576 MEMB     19       DOPC     C33      CTL2    -0.180000       12.0110           0
      2577 MEMB     19       DOPC     H3X      HAL2     0.900000E-01   1.00800           0
      2578 MEMB     19       DOPC     H3Y      HAL2     0.900000E-01   1.00800           0
      2579 MEMB     19       DOPC     C34      CTL2    -0.180000       12.0110           0
      2580 MEMB     19       DOPC     H4X      HAL2     0.900000E-01   1.00800           0
      2581 MEMB     19       DOPC     H4Y      HAL2     0.900000E-01   1.00800           0
      2582 MEMB     19       DOPC     C35      CTL2    -0.180000       12.0110           0
      2583 MEMB     19       DOPC     H5X      HAL2     0.900000E-01   1.00800           0
      2584 MEMB     19       DOPC     H5Y      HAL2     0.900000E-01   1.00800           0
      2585 MEMB     19       DOPC     C36      CTL2    -0.180000       12.0110           0
      2586 MEMB     19       DOPC     H6X      HAL2     0.900000E-01   1.00800           0
      2587 MEMB     19       DOPC     H6Y      HAL2     0.900000E-01   1.00800           0
      2588 MEMB     19       DOPC     C37      CTL2    -0.180000       12.0110           0
      2589 MEMB     19       DOPC     H7X      HAL2     0.900000E-01   1.00800           0
      2590 MEMB     19       DOPC     H7Y      HAL2     0.900000E-01   1.00800           0
      2591 MEMB     19       DOPC     C38      CTL2    -0.180000       12.0110           0
      2592 MEMB     19       DOPC     H8X      HAL2     0.900000E-01   1.00800           0
      2593 MEMB     19       DOPC     H8Y      HAL2     0.900000E-01   1.00800           0
      2594 MEMB     19       DOPC     C39      CEL1    -0.150000       12.0110           0
      2595 MEMB     19       DOPC     H9X      HEL1     0.150000       1.00800           0
      2596 MEMB     19       DOPC     C310     CEL1    -0.150000       12.0110           0
      2597 MEMB     19       DOPC     H10X     HEL1     0.150000       1.00800           0
      2598 MEMB     19       DOPC     C311     CTL2    -0.180000       12.0110           0
      2599 MEMB     19       DOPC     H11X     HAL2     0.900000E-01   1.00800           0
      2600 MEMB     19       DOPC     H11Y     HAL2     0.900000E-01   1.00800           0
      2601 MEMB     19       DOPC     C312     CTL2    -0.180000       12.0110           0
      2602 MEMB     19       DOPC     H12X     HAL2     0.900000E-01   1.00800           0
      2603 MEMB     19       DOPC     H12Y     HAL2     0.900000E-01   1.00800           0
      2604 MEMB     19       DOPC     C313     CTL2    -0.180000       12.0110           0
      2605 MEMB     19       DOPC     H13X     HAL2     0.900000E-01   1.00800           0
      2606 MEMB     19       DOPC     H13Y     HAL2     0.900000E-01   1.00800           0
      2607 MEMB     19       DOPC     C314     CTL2    -0.180000       12.0110           0
      2608 MEMB     19       DOPC     H14X     HAL2     0.900000E-01   1.00800           0
      2609 MEMB     19       DOPC     H14Y     HAL2     0.900000E-01   1.00800           0
      2610 MEMB     19       DOPC     C315     CTL2    -0.180000       12.0110           0
      2611 MEMB     19       DOPC     H15X     HAL2     0.900000E-01   1.00800           0
      2612 MEMB     19       DOPC     H15Y     HAL2     0.900000E-01   1.00800           0
      2613 MEMB     19       DOPC     C316     CTL2    -0.180000       12.0110           0
      2614 MEMB     19       DOPC     H16X     HAL2     0.900000E-01   1.00800           0
      2615 MEMB     19       DOPC     H16Y     HAL2     0.900000E-01   1.00800           0
      2616 MEMB     19       DOPC     C317     CTL2    -0.180000       12.0110           0
      2617 MEMB     19       DOPC     H17X     HAL2     0.900000E-01   1.00800           0
      2618 MEMB     19       DOPC     H17Y     HAL2     0.900000E-01   1.00800           0
      2619 MEMB     19       DOPC     C318     CTL3    -0.270000       12.0110           0
      2620 MEMB     19       DOPC     H18X     HAL3     0.900000E-01   1.00800           0
      2621 MEMB     19       DOPC     H18Y     HAL3     0.900000E-01   1.00800           0
      2622 MEMB     19       DOPC     H18Z     HAL3     0.900000E-01   1.00800           0
      2623 MEMB     20       DOPC     N        NTL     -0.600000       14.0070           0
      2624 MEMB     20       DOPC     C12      CTL2    -0.100000       12.0110           0
      2625 MEMB     20       DOPC     H12A     HL       0.250000       1.00800           0
      2626 MEMB     20       DOPC     H12B     HL       0.250000       1.00800           0
      2627 MEMB     20       DOPC     C13      CTL5    -0.350000       12.0110           0
      2628 MEMB     20       DOPC     H13A     HL       0.250000       1.00800           0
      2629 MEMB     20       DOPC     H13B     HL       0.250000       1.00800           0
      2630 MEMB     20       DOPC     H13C     HL       0.250000       1.00800           0
      2631 MEMB     20       DOPC     C14      CTL5    -0.350000       12.0110           0
      2632 MEMB     20       DOPC     H14A     HL       0.250000       1.00800           0
      2633 MEMB     20       DOPC     H14B     HL       0.250000       1.00800           0
      2634 MEMB     20       DOPC     H14C     HL       0.250000       1.00800           0
      2635 MEMB     20       DOPC     C15      CTL5    -0.350000       12.0110           0
      2636 MEMB     20       DOPC     H15A     HL       0.250000       1.00800           0
      2637 MEMB     20       DOPC     H15B     HL       0.250000       1.00800           0
      2638 MEMB     20       DOPC     H15C     HL       0.250000       1.00800           0
      2639 MEMB     20       DOPC     C11      CTL2    -0.800000E-01   12.0110           0
      2640 MEMB     20       DOPC     H11A     HAL2     0.900000E-01   1.00800           0
      2641 MEMB     20       DOPC     H11B     HAL2     0.900000E-01   1.00800           0
      2642 MEMB     20       DOPC     P        PL        1.50000       30.9740           0
      2643 MEMB     20       DOPC     O13      O2L     -0.780000       15.9994           0
      2644 MEMB     20       DOPC     O14      O2L     -0.780000       15.9994           0
      2645 MEMB     20       DOPC     O12      OSLP    -0.570000       15.9994           0
      2646 MEMB     20       DOPC     O11      OSLP    -0.570000       15.9994           0
      2647 MEMB     20       DOPC     C1       CTL2    -0.800000E-01   12.0110           0
      2648 MEMB     20       DOPC     HA       HAL2     0.900000E-01   1.00800           0
      2649 MEMB     20       DOPC     HB       HAL2     0.900000E-01   1.00800           0
      2650 MEMB     20       DOPC     C2       CTL1     0.170000       12.0110           0
      2651 MEMB     20       DOPC     HS       HAL1     0.900000E-01   1.00800           0
      2652 MEMB     20       DOPC     O21      OSL     -0.490000       15.9994           0
      2653 MEMB     20       DOPC     C21      CL       0.900000       12.0110           0
      2654 MEMB     20       DOPC     O22      OBL     -0.630000       15.9994           0
      2655 MEMB     20       DOPC     C22      CTL2    -0.220000       12.0110           0
      2656 MEMB     20       DOPC     H2R      HAL2     0.900000E-01   1.00800           0
      2657 MEMB     20       DOPC     H2S      HAL2     0.900000E-01   1.00800           0
      2658 MEMB     20       DOPC     C3       CTL2     0.800000E-01   12.0110           0
      2659 MEMB     20       DOPC     HX       HAL2     0.900000E-01   1.00800           0
      2660 MEMB     20       DOPC     HY       HAL2     0.900000E-01   1.00800           0
      2661 MEMB     20       DOPC     O31      OSL     -0.490000       15.9994           0
      2662 MEMB     20       DOPC     C31      CL       0.900000       12.0110           0
      2663 MEMB     20       DOPC     O32      OBL     -0.630000       15.9994           0
      2664 MEMB     20       DOPC     C32      CTL2    -0.220000       12.0110           0
      2665 MEMB     20       DOPC     H2X      HAL2     0.900000E-01   1.00800           0
      2666 MEMB     20       DOPC     H2Y      HAL2     0.900000E-01   1.00800           0
      2667 MEMB     20       DOPC     C23      CTL2    -0.180000       12.0110           0
      2668 MEMB     20       DOPC     H3R      HAL2     0.900000E-01   1.00800           0
      2669 MEMB     20       DOPC     H3S      HAL2     0.900000E-01   1.00800           0
      2670 MEMB     20       DOPC     C24      CTL2    -0.180000       12.0110           0
      2671 MEMB     20       DOPC     H4R      HAL2     0.900000E-01   1.00800           0
      2672 MEMB     20       DOPC     H4S      HAL2     0.900000E-01   1.00800           0
      2673 MEMB     20       DOPC     C25      CTL2    -0.180000       12.0110           0
      2674 MEMB     20       DOPC     H5R      HAL2     0.900000E-01   1.00800           0
      2675 MEMB     20       DOPC     H5S      HAL2     0.900000E-01   1.00800           0
      2676 MEMB     20       DOPC     C26      CTL2    -0.180000       12.0110           0
      2677 MEMB     20       DOPC     H6R      HAL2     0.900000E-01   1.00800           0
      2678 MEMB     20       DOPC     H6S      HAL2     0.900000E-01   1.00800           0
      2679 MEMB     20       DOPC     C27      CTL2    -0.180000       12.0110           0
      2680 MEMB     20       DOPC     H7R      HAL2     0.900000E-01   1.00800           0
      2681 MEMB     20       DOPC     H7S      HAL2     0.900000E-01   1.00800           0
      2682 MEMB     20       DOPC     C28      CTL2    -0.180000       12.0110           0
      2683 MEMB     20       DOPC     H8R      HAL2     0.900000E-01   1.00800           0
      2684 MEMB     20       DOPC     H8S      HAL2     0.900000E-01   1.00800           0
      2685 MEMB     20       DOPC     C29      CEL1    -0.150000       12.0110           0
      2686 MEMB     20       DOPC     H9R      HEL1     0.150000       1.00800           0
      2687 MEMB     20       DOPC     C210     CEL1    -0.150000       12.0110           0
      2688 MEMB     20       DOPC     H10R     HEL1     0.150000       1.00800           0
      2689 MEMB     20       DOPC     C211     CTL2    -0.180000       12.0110           0
      2690 MEMB     20       DOPC     H11R     HAL2     0.900000E-01   1.00800           0
      2691 MEMB     20       DOPC     H11S     HAL2     0.900000E-01   1.00800           0
      2692 MEMB     20       DOPC     C212     CTL2    -0.180000       12.0110           0
      2693 MEMB     20       DOPC     H12R     HAL2     0.900000E-01   1.00800           0
      2694 MEMB     20       DOPC     H12S     HAL2     0.900000E-01   1.00800           0
      2695 MEMB     20       DOPC     C213     CTL2    -0.180000       12.0110           0
      2696 MEMB     20       DOPC     H13R     HAL2     0.900000E-01   1.00800           0
      2697 MEMB     20       DOPC     H13S     HAL2     0.900000E-01   1.00800           0
      2698 MEMB     20       DOPC     C214     CTL2    -0.180000       12.0110           0
      2699 MEMB     20       DOPC     H14R     HAL2     0.900000E-01   1.00800           0
      2700 MEMB     20       DOPC     H14S     HAL2     0.900000E-01   1.00800           0
      2701 MEMB     20       DOPC     C215     CTL2    -0.180000       12.0110           0
      2702 MEMB     20       DOPC     H15R     HAL2     0.900000E-01   1.00800           0
      2703 MEMB     20       DOPC     H15S     HAL2     0.900000E-01   1.00800           0
      2704 MEMB     20       DOPC     C216     CTL2    -0.180000       12.0110           0
      2705 MEMB     20       DOPC     H16R     HAL2     0.900000E-01   1.00800           0
      2706 MEMB     20       DOPC     H16S     HAL2     0.900000E-01   1.00800           0
      2707 MEMB     20       DOPC     C217     CTL2    -0.180000       12.0110           0
      2708 MEMB     20       DOPC     H17R     HAL2     0.900000E-01   1.00800           0
      2709 MEMB     20       DOPC     H17S     HAL2     0.900000E-01   1.00800           0
      2710 MEMB     20       DOPC     C218     CTL3    -0.270000       12.0110           0
      2711 MEMB     20       DOPC     H18R     HAL3     0.900000E-01   1.00800           0
      2712 MEMB     20       DOPC     H18S     HAL3     0.900000E-01   1.00800           0
      2713 MEMB     20       DOPC     H18T     HAL3     0.900000E-01   1.00800           0
      2714 MEMB     20       DOPC     C33      CTL2    -0.180000       12.0110           0
      2715 MEMB     20       DOPC     H3X      HAL2     0.900000E-01   1.00800           0
      2716 MEMB     20       DOPC     H3Y      HAL2     0.900000E-01   1.00800           0
      2717 MEMB     20       DOPC     C34      CTL2    -0.180000       12.0110           0
      2718 MEMB     20       DOPC     H4X      HAL2     0.900000E-01   1.00800           0
      2719 MEMB     20       DOPC     H4Y      HAL2     0.900000E-01   1.00800           0
      2720 MEMB     20       DOPC     C35      CTL2    -0.180000       12.0110           0
      2721 MEMB     20       DOPC     H5X      HAL2     0.900000E-01   1.00800           0
      2722 MEMB     20       DOPC     H5Y      HAL2     0.900000E-01   1.00800           0
      2723 MEMB     20       DOPC     C36      CTL2    -0.180000       12.0110           0
      2724 MEMB     20       DOPC     H6X      HAL2     0.900000E-01   1.00800           0
      2725 MEMB     20       DOPC     H6Y      HAL2     0.900000E-01   1.00800           0
      2726 MEMB     20       DOPC     C37      CTL2    -0.180000       12.0110           0
      2727 MEMB     20       DOPC     H7X      HAL2     0.900000E-01   1.00800           0
      2728 MEMB     20       DOPC     H7Y      HAL2     0.900000E-01   1.00800           0
      2729 MEMB     20       DOPC     C38      CTL2    -0.180000       12.0110           0
      2730 MEMB     20       DOPC     H8X      HAL2     0.900000E-01   1.00800           0
      2731 MEMB     20       DOPC     H8Y      HAL2     0.900000E-01   1.00800           0
      2732 MEMB     20       DOPC     C39      CEL1    -0.150000       12.0110           0
      2733 MEMB     20       DOPC     H9X      HEL1     0.150000       1.00800           0
      2734 MEMB     20       DOPC     C310     CEL1    -0.150000       12.0110           0
      2735 MEMB     20       DOPC     H10X     HEL1     0.150000       1.00800           0
      2736 MEMB     20       DOPC     C311     CTL2    -0.180000       12.0110           0
      2737 MEMB     20       DOPC     H11X     HAL2     0.900000E-01   1.00800           0
      2738 MEMB     20       DOPC     H11Y     HAL2     0.900000E-01   1.00800           0
      2739 MEMB     20       DOPC     C312     CTL2    -0.180000       12.0110           0
      2740 MEMB     20       DOPC     H12X     HAL2     0.900000E-01   1.00800           0
      2741 MEMB     20       DOPC     H12Y     HAL2     0.900000E-01   1.00800           0
      2742 MEMB     20       DOPC     C313     CTL2    -0.180000       12.0110           0
      2743 MEMB     20       DOPC     H13X     HAL2     0.900000E-01   1.00800           0
      2744 MEMB     20       DOPC     H13Y     HAL2     0.900000E-01   1.00800           0
      2745 MEMB     20       DOPC     C314     CTL2    -0.180000       12.0110           0
      2746 MEMB     20       DOPC     H14X     HAL2     0.900000E-01   1.00800           0
      2747 MEMB     20       DOPC     H14Y     HAL2     0.900000E-01   1.00800           0
      2748 MEMB     20       DOPC     C315     CTL2    -0.180000       12.0110           0
      2749 MEMB     20       DOPC     H15X     HAL2     0.900000E-01   1.00800           0
      2750 MEMB     20       DOPC     H15Y     HAL2     0.900000E-01   1.00800           0
      2751 MEMB     20       DOPC     C316     CTL2    -0.180000       12.0110           0
      2752 MEMB     20       DOPC     H16X     HAL2     0.900000E-01   1.00800           0
      2753 MEMB     20       DOPC     H16Y     HAL2     0.900000E-01   1.00800           0
      2754 MEMB     20       DOPC     C317     CTL2    -0.180000       12.0110           0
      2755 MEMB     20       DOPC     H17X     HAL2     0.900000E-01   1.00800           0
      2756 MEMB     20       DOPC     H17Y     HAL2     0.900000E-01   1.00800           0
      2757 MEMB     20       DOPC     C318     CTL3    -0.270000       12.0110           0
      2758 MEMB     20       DOPC     H18X     HAL3     0.900000E-01   1.00800           0
      2759 MEMB     20       DOPC     H18Y     HAL3     0.900000E-01   1.00800           0
      2760 MEMB     20       DOPC     H18Z     HAL3     0.900000E-01   1.00800           0
      2761 MEMB     21       DOPC     N        NTL     -0.600000       14.0070           0
      2762 MEMB     21       DOPC     C12      CTL2    -0.100000       12.0110           0
      2763 MEMB     21       DOPC     H12A     HL       0.250000       1.00800           0
      2764 MEMB     21       DOPC     H12B     HL       0.250000       1.00800           0
      2765 MEMB     21       DOPC     C13      CTL5    -0.350000       12.0110           0
      2766 MEMB     21       DOPC     H13A     HL       0.250000       1.00800           0
      2767 MEMB     21       DOPC     H13B     HL       0.250000       1.00800           0
      2768 MEMB     21       DOPC     H13C     HL       0.250000       1.00800           0
      2769 MEMB     21       DOPC     C14      CTL5    -0.350000       12.0110           0
      2770 MEMB     21       DOPC     H14A     HL       0.250000       1.00800           0
      2771 MEMB     21       DOPC     H14B     HL       0.250000       1.00800           0
      2772 MEMB     21       DOPC     H14C     HL       0.250000       1.00800           0
      2773 MEMB     21       DOPC     C15      CTL5    -0.350000       12.0110           0
      2774 MEMB     21       DOPC     H15A     HL       0.250000       1.00800           0
      2775 MEMB     21       DOPC     H15B     HL       0.250000       1.00800           0
      2776 MEMB     21       DOPC     H15C     HL       0.250000       1.00800           0
      2777 MEMB     21       DOPC     C11      CTL2    -0.800000E-01   12.0110           0
      2778 MEMB     21       DOPC     H11A     HAL2     0.900000E-01   1.00800           0
      2779 MEMB     21       DOPC     H11B     HAL2     0.900000E-01   1.00800           0
      2780 MEMB     21       DOPC     P        PL        1.50000       30.9740           0
      2781 MEMB     21       DOPC     O13      O2L     -0.780000       15.9994           0
      2782 MEMB     21       DOPC     O14      O2L     -0.780000       15.9994           0
      2783 MEMB     21       DOPC     O12      OSLP    -0.570000       15.9994           0
      2784 MEMB     21       DOPC     O11      OSLP    -0.570000       15.9994           0
      2785 MEMB     21       DOPC     C1       CTL2    -0.800000E-01   12.0110           0
      2786 MEMB     21       DOPC     HA       HAL2     0.900000E-01   1.00800           0
      2787 MEMB     21       DOPC     HB       HAL2     0.900000E-01   1.00800           0
      2788 MEMB     21       DOPC     C2       CTL1     0.170000       12.0110           0
      2789 MEMB     21       DOPC     HS       HAL1     0.900000E-01   1.00800           0
      2790 MEMB     21       DOPC     O21      OSL     -0.490000       15.9994           0
      2791 MEMB     21       DOPC     C21      CL       0.900000       12.0110           0
      2792 MEMB     21       DOPC     O22      OBL     -0.630000       15.9994           0
      2793 MEMB     21       DOPC     C22      CTL2    -0.220000       12.0110           0
      2794 MEMB     21       DOPC     H2R      HAL2     0.900000E-01   1.00800           0
      2795 MEMB     21       DOPC     H2S      HAL2     0.900000E-01   1.00800           0
      2796 MEMB     21       DOPC     C3       CTL2     0.800000E-01   12.0110           0
      2797 MEMB     21       DOPC     HX       HAL2     0.900000E-01   1.00800           0
      2798 MEMB     21       DOPC     HY       HAL2     0.900000E-01   1.00800           0
      2799 MEMB     21       DOPC     O31      OSL     -0.490000       15.9994           0
      2800 MEMB     21       DOPC     C31      CL       0.900000       12.0110           0
      2801 MEMB     21       DOPC     O32      OBL     -0.630000       15.9994           0
      2802 MEMB     21       DOPC     C32      CTL2    -0.220000       12.0110           0
      2803 MEMB     21       DOPC     H2X      HAL2     0.900000E-01   1.00800           0
      2804 MEMB     21       DOPC     H2Y      HAL2     0.900000E-01   1.00800           0
      2805 MEMB     21       DOPC     C23      CTL2    -0.180000       12.0110           0
      2806 MEMB     21       DOPC     H3R      HAL2     0.900000E-01   1.00800           0
      2807 MEMB     21       DOPC     H3S      HAL2     0.900000E-01   1.00800           0
      2808 MEMB     21       DOPC     C24      CTL2    -0.180000       12.0110           0
      2809 MEMB     21       DOPC     H4R      HAL2     0.900000E-01   1.00800           0
      2810 MEMB     21       DOPC     H4S      HAL2     0.900000E-01   1.00800           0
      2811 MEMB     21       DOPC     C25      CTL2    -0.180000       12.0110           0
      2812 MEMB     21       DOPC     H5R      HAL2     0.900000E-01   1.00800           0
      2813 MEMB     21       DOPC     H5S      HAL2     0.900000E-01   1.00800           0
      2814 MEMB     21       DOPC     C26      CTL2    -0.180000       12.0110           0
      2815 MEMB     21       DOPC     H6R      HAL2     0.900000E-01   1.00800           0
      2816 MEMB     21       DOPC     H6S      HAL2     0.900000E-01   1.00800           0
      2817 MEMB     21       DOPC     C27      CTL2    -0.180000       12.0110           0
      2818 MEMB     21       DOPC     H7R      HAL2     0.900000E-01   1.00800           0
      2819 MEMB     21       DOPC     H7S      HAL2     0.900000E-01   1.00800           0
      2820 MEMB     21       DOPC     C28      CTL2    -0.180000       12.0110           0
      2821 MEMB     21       DOPC     H8R      HAL2     0.900000E-01   1.00800           0
      2822 MEMB     21       DOPC     H8S      HAL2     0.900000E-01   1.00800           0
      2823 MEMB     21       DOPC     C29      CEL1    -0.150000       12.0110           0
      2824 MEMB     21       DOPC     H9R      HEL1     0.150000       1.00800           0
      2825 MEMB     21       DOPC     C210     CEL1    -0.150000       12.0110           0
      2826 MEMB     21       DOPC     H10R     HEL1     0.150000       1.00800           0
      2827 MEMB     21       DOPC     C211     CTL2    -0.180000       12.0110           0
      2828 MEMB     21       DOPC     H11R     HAL2     0.900000E-01   1.00800           0
      2829 MEMB     21       DOPC     H11S     HAL2     0.900000E-01   1.00800           0
      2830 MEMB     21       DOPC     C212     CTL2    -0.180000       12.0110           0
      2831 MEMB     21       DOPC     H12R     HAL2     0.900000E-01   1.00800           0
      2832 MEMB     21       DOPC     H12S     HAL2     0.900000E-01   1.00800           0
      2833 MEMB     21       DOPC     C213     CTL2    -0.180000       12.0110           0
      2834 MEMB     21       DOPC     H13R     HAL2     0.900000E-01   1.00800           0
      2835 MEMB     21       DOPC     H13S     HAL2     0.900000E-01   1.00800           0
      2836 MEMB     21       DOPC     C214     CTL2    -0.180000       12.0110           0
      2837 MEMB     21       DOPC     H14R     HAL2     0.900000E-01   1.00800           0
      2838 MEMB     21       DOPC     H14S     HAL2     0.900000E-01   1.00800           0
      2839 MEMB     21       DOPC     C215     CTL2    -0.180000       12.0110           0
      2840 MEMB     21       DOPC     H15R     HAL2     0.900000E-01   1.00800           0
      2841 MEMB     21       DOPC     H15S     HAL2     0.900000E-01   1.00800           0
      2842 MEMB     21       DOPC     C216     CTL2    -0.180000       12.0110           0
      2843 MEMB     21       DOPC     H16R     HAL2     0.900000E-01   1.00800           0
      2844 MEMB     21       DOPC     H16S     HAL2     0.900000E-01   1.00800           0
      2845 MEMB     21       DOPC     C217     CTL2    -0.180000       12.0110           0
      2846 MEMB     21       DOPC     H17R     HAL2     0.900000E-01   1.00800           0
      2847 MEMB     21       DOPC     H17S     HAL2     0.900000E-01   1.00800           0
      2848 MEMB     21       DOPC     C218     CTL3    -0.270000       12.0110           0
      2849 MEMB     21       DOPC     H18R     HAL3     0.900000E-01   1.00800           0
      2850 MEMB     21       DOPC     H18S     HAL3     0.900000E-01   1.00800           0
      2851 MEMB     21       DOPC     H18T     HAL3     0.900000E-01   1.00800           0
      2852 MEMB     21       DOPC     C33      CTL2    -0.180000       12.0110           0
      2853 MEMB     21       DOPC     H3X      HAL2     0.900000E-01   1.00800           0
      2854 MEMB     21       DOPC     H3Y      HAL2     0.900000E-01   1.00800           0
      2855 MEMB     21       DOPC     C34      CTL2    -0.180000       12.0110           0
      2856 MEMB     21       DOPC     H4X      HAL2     0.900000E-01   1.00800           0
      2857 MEMB     21       DOPC     H4Y      HAL2     0.900000E-01   1.00800           0
      2858 MEMB     21       DOPC     C35      CTL2    -0.180000       12.0110           0
      2859 MEMB     21       DOPC     H5X      HAL2     0.900000E-01   1.00800           0
      2860 MEMB     21       DOPC     H5Y      HAL2     0.900000E-01   1.00800           0
      2861 MEMB     21       DOPC     C36      CTL2    -0.180000       12.0110           0
      2862 MEMB     21       DOPC     H6X      HAL2     0.900000E-01   1.00800           0
      2863 MEMB     21       DOPC     H6Y      HAL2     0.900000E-01   1.00800           0
      2864 MEMB     21       DOPC     C37      CTL2    -0.180000       12.0110           0
      2865 MEMB     21       DOPC     H7X      HAL2     0.900000E-01   1.00800           0
      2866 MEMB     21       DOPC     H7Y      HAL2     0.900000E-01   1.00800           0
      2867 MEMB     21       DOPC     C38      CTL2    -0.180000       12.0110           0
      2868 MEMB     21       DOPC     H8X      HAL2     0.900000E-01   1.00800           0
      2869 MEMB     21       DOPC     H8Y      HAL2     0.900000E-01   1.00800           0
      2870 MEMB     21       DOPC     C39      CEL1    -0.150000       12.0110           0
      2871 MEMB     21       DOPC     H9X      HEL1     0.150000       1.00800           0
      2872 MEMB     21       DOPC     C310     CEL1    -0.150000       12.0110           0
      2873 MEMB     21       DOPC     H10X     HEL1     0.150000       1.00800           0
      2874 MEMB     21       DOPC     C311     CTL2    -0.180000       12.0110           0
      2875 MEMB     21       DOPC     H11X     HAL2     0.900000E-01   1.00800           0
      2876 MEMB     21       DOPC     H11Y     HAL2     0.900000E-01   1.00800           0
      2877 MEMB     21       DOPC     C312     CTL2    -0.180000       12.0110           0
      2878 MEMB     21       DOPC     H12X     HAL2     0.900000E-01   1.00800           0
      2879 MEMB     21       DOPC     H12Y     HAL2     0.900000E-01   1.00800           0
      2880 MEMB     21       DOPC     C313     CTL2    -0.180000       12.0110           0
      2881 MEMB     21       DOPC     H13X     HAL2     0.900000E-01   1.00800           0
      2882 MEMB     21       DOPC     H13Y     HAL2     0.900000E-01   1.00800           0
      2883 MEMB     21       DOPC     C314     CTL2    -0.180000       12.0110           0
      2884 MEMB     21       DOPC     H14X     HAL2     0.900000E-01   1.00800           0
      2885 MEMB     21       DOPC     H14Y     HAL2     0.900000E-01   1.00800           0
      2886 MEMB     21       DOPC     C315     CTL2    -0.180000       12.0110           0
      2887 MEMB     21       DOPC     H15X     HAL2     0.900000E-01   1.00800           0
      2888 MEMB     21       DOPC     H15Y     HAL2     0.900000E-01   1.00800           0
      2889 MEMB     21       DOPC     C316     CTL2    -0.180000       12.0110           0
      2890 MEMB     21       DOPC     H16X     HAL2     0.900000E-01   1.00800           0
      2891 MEMB     21       DOPC     H16Y     HAL2     0.900000E-01   1.00800           0
      2892 MEMB     21       DOPC     C317     CTL2    -0.180000       12.0110           0
      2893 MEMB     21       DOPC     H17X     HAL2     0.900000E-01   1.00800           0
      2894 MEMB     21       DOPC     H17Y     HAL2     0.900000E-01   1.00800           0
      2895 MEMB     21       DOPC     C318     CTL3    -0.270000       12.0110           0
      2896 MEMB     21       DOPC     H18X     HAL3     0.900000E-01   1.00800           0
      2897 MEMB     21       DOPC     H18Y     HAL3     0.900000E-01   1.00800           0
      2898 MEMB     21       DOPC     H18Z     HAL3     0.900000E-01   1.00800           0
      2899 MEMB     22       DOPC     N        NTL     -0.600000       14.0070           0
      2900 MEMB     22       DOPC     C12      CTL2    -0.100000       12.0110           0
      2901 MEMB     22       DOPC     H12A     HL       0.250000       1.00800           0
      2902 MEMB     22       DOPC     H12B     HL       0.250000       1.00800           0
      2903 MEMB     22       DOPC     C13      CTL5    -0.350000       12.0110           0
      2904 MEMB     22       DOPC     H13A     HL       0.250000       1.00800           0
      2905 MEMB     22       DOPC     H13B     HL       0.250000       1.00800           0
      2906 MEMB     22       DOPC     H13C     HL       0.250000       1.00800           0
      2907 MEMB     22       DOPC     C14      CTL5    -0.350000       12.0110           0
      2908 MEMB     22       DOPC     H14A     HL       0.250000       1.00800           0
      2909 MEMB     22       DOPC     H14B     HL       0.250000       1.00800           0
      2910 MEMB     22       DOPC     H14C     HL       0.250000       1.00800           0
      2911 MEMB     22       DOPC     C15      CTL5    -0.350000       12.0110           0
      2912 MEMB     22       DOPC     H15A     HL       0.250000       1.00800           0
      2913 MEMB     22       DOPC     H15B     HL       0.250000       1.00800           0
      2914 MEMB     22       DOPC     H15C     HL       0.250000       1.00800           0
      2915 MEMB     22       DOPC     C11      CTL2    -0.800000E-01   12.0110           0
      2916 MEMB     22       DOPC     H11A     HAL2     0.900000E-01   1.00800           0
      2917 MEMB     22       DOPC     H11B     HAL2     0.900000E-01   1.00800           0
      2918 MEMB     22       DOPC     P        PL        1.50000       30.9740           0
      2919 MEMB     22       DOPC     O13      O2L     -0.780000       15.9994           0
      2920 MEMB     22       DOPC     O14      O2L     -0.780000       15.9994           0
      2921 MEMB     22       DOPC     O12      OSLP    -0.570000       15.9994           0
      2922 MEMB     22       DOPC     O11      OSLP    -0.570000       15.9994           0
      2923 MEMB     22       DOPC     C1       CTL2    -0.800000E-01   12.0110           0
      2924 MEMB     22       DOPC     HA       HAL2     0.900000E-01   1.00800           0
      2925 MEMB     22       DOPC     HB       HAL2     0.900000E-01   1.00800           0
      2926 MEMB     22       DOPC     C2       CTL1     0.170000       12.0110           0
      2927 MEMB     22       DOPC     HS       HAL1     0.900000E-01   1.00800           0
      2928 MEMB     22       DOPC     O21      OSL     -0.490000       15.9994           0
      2929 MEMB     22       DOPC     C21      CL       0.900000       12.0110           0
      2930 MEMB     22       DOPC     O22      OBL     -0.630000       15.9994           0
      2931 MEMB     22       DOPC     C22      CTL2    -0.220000       12.0110           0
      2932 MEMB     22       DOPC     H2R      HAL2     0.900000E-01   1.00800           0
      2933 MEMB     22       DOPC     H2S      HAL2     0.900000E-01   1.00800           0
      2934 MEMB     22       DOPC     C3       CTL2     0.800000E-01   12.0110           0
      2935 MEMB     22       DOPC     HX       HAL2     0.900000E-01   1.00800           0
      2936 MEMB     22       DOPC     HY       HAL2     0.900000E-01   1.00800           0
      2937 MEMB     22       DOPC     O31      OSL     -0.490000       15.9994           0
      2938 MEMB     22       DOPC     C31      CL       0.900000       12.0110           0
      2939 MEMB     22       DOPC     O32      OBL     -0.630000       15.9994           0
      2940 MEMB     22       DOPC     C32      CTL2    -0.220000       12.0110           0
      2941 MEMB     22       DOPC     H2X      HAL2     0.900000E-01   1.00800           0
      2942 MEMB     22       DOPC     H2Y      HAL2     0.900000E-01   1.00800           0
      2943 MEMB     22       DOPC     C23      CTL2    -0.180000       12.0110           0
      2944 MEMB     22       DOPC     H3R      HAL2     0.900000E-01   1.00800           0
      2945 MEMB     22       DOPC     H3S      HAL2     0.900000E-01   1.00800           0
      2946 MEMB     22       DOPC     C24      CTL2    -0.180000       12.0110           0
      2947 MEMB     22       DOPC     H4R      HAL2     0.900000E-01   1.00800           0
      2948 MEMB     22       DOPC     H4S      HAL2     0.900000E-01   1.00800           0
      2949 MEMB     22       DOPC     C25      CTL2    -0.180000       12.0110           0
      2950 MEMB     22       DOPC     H5R      HAL2     0.900000E-01   1.00800           0
      2951 MEMB     22       DOPC     H5S      HAL2     0.900000E-01   1.00800           0
      2952 MEMB     22       DOPC     C26      CTL2    -0.180000       12.0110           0
      2953 MEMB     22       DOPC     H6R      HAL2     0.900000E-01   1.00800           0
      2954 MEMB     22       DOPC     H6S      HAL2     0.900000E-01   1.00800           0
      2955 MEMB     22       DOPC     C27      CTL2    -0.180000       12.0110           0
      2956 MEMB     22       DOPC     H7R      HAL2     0.900000E-01   1.00800           0
      2957 MEMB     22       DOPC     H7S      HAL2     0.900000E-01   1.00800           0
      2958 MEMB     22       DOPC     C28      CTL2    -0.180000       12.0110           0
      2959 MEMB     22       DOPC     H8R      HAL2     0.900000E-01   1.00800           0
      2960 MEMB     22       DOPC     H8S      HAL2     0.900000E-01   1.00800           0
      2961 MEMB     22       DOPC     C29      CEL1    -0.150000       12.0110           0
      2962 MEMB     22       DOPC     H9R      HEL1     0.150000       1.00800           0
      2963 MEMB     22       DOPC     C210     CEL1    -0.150000       12.0110           0
      2964 MEMB     22       DOPC     H10R     HEL1     0.150000       1.00800           0
      2965 MEMB     22       DOPC     C211     CTL2    -0.180000       12.0110           0
      2966 MEMB     22       DOPC     H11R     HAL2     0.900000E-01   1.00800           0
      2967 MEMB     22       DOPC     H11S     HAL2     0.900000E-01   1.00800           0
      2968 MEMB     22       DOPC     C212     CTL2    -0.180000       12.0110           0
      2969 MEMB     22       DOPC     H12R     HAL2     0.900000E-01   1.00800           0
      2970 MEMB     22       DOPC     H12S     HAL2     0.900000E-01   1.00800           0
      2971 MEMB     22       DOPC     C213     CTL2    -0.180000       12.0110           0
      2972 MEMB     22       DOPC     H13R     HAL2     0.900000E-01   1.00800           0
      2973 MEMB     22       DOPC     H13S     HAL2     0.900000E-01   1.00800           0
      2974 MEMB     22       DOPC     C214     CTL2    -0.180000       12.0110           0
      2975 MEMB     22       DOPC     H14R     HAL2     0.900000E-01   1.00800           0
      2976 MEMB     22       DOPC     H14S     HAL2     0.900000E-01   1.00800           0
      2977 MEMB     22       DOPC     C215     CTL2    -0.180000       12.0110           0
      2978 MEMB     22       DOPC     H15R     HAL2     0.900000E-01   1.00800           0
      2979 MEMB     22       DOPC     H15S     HAL2     0.900000E-01   1.00800           0
      2980 MEMB     22       DOPC     C216     CTL2    -0.180000       12.0110           0
      2981 MEMB     22       DOPC     H16R     HAL2     0.900000E-01   1.00800           0
      2982 MEMB     22       DOPC     H16S     HAL2     0.900000E-01   1.00800           0
      2983 MEMB     22       DOPC     C217     CTL2    -0.180000       12.0110           0
      2984 MEMB     22       DOPC     H17R     HAL2     0.900000E-01   1.00800           0
      2985 MEMB     22       DOPC     H17S     HAL2     0.900000E-01   1.00800           0
      2986 MEMB     22       DOPC     C218     CTL3    -0.270000       12.0110           0
      2987 MEMB     22       DOPC     H18R     HAL3     0.900000E-01   1.00800           0
      2988 MEMB     22       DOPC     H18S     HAL3     0.900000E-01   1.00800           0
      2989 MEMB     22       DOPC     H18T     HAL3     0.900000E-01   1.00800           0
      2990 MEMB     22       DOPC     C33      CTL2    -0.180000       12.0110           0
      2991 MEMB     22       DOPC     H3X      HAL2     0.900000E-01   1.00800           0
      2992 MEMB     22       DOPC     H3Y      HAL2     0.900000E-01   1.00800           0
      2993 MEMB     22       DOPC     C34      CTL2    -0.180000       12.0110           0
      2994 MEMB     22       DOPC     H4X      HAL2     0.900000E-01   1.00800           0
      2995 MEMB     22       DOPC     H4Y      HAL2     0.900000E-01   1.00800           0
      2996 MEMB     22       DOPC     C35      CTL2    -0.180000       12.0110           0
      2997 MEMB     22       DOPC     H5X      HAL2     0.900000E-01   1.00800           0
      2998 MEMB     22       DOPC     H5Y      HAL2     0.900000E-01   1.00800           0
      2999 MEMB     22       DOPC     C36      CTL2    -0.180000       12.0110           0
      3000 MEMB     22       DOPC     H6X      HAL2     0.900000E-01   1.00800           0
      3001 MEMB     22       DOPC     H6Y      HAL2     0.900000E-01   1.00800           0
      3002 MEMB     22       DOPC     C37      CTL2    -0.180000       12.0110           0
      3003 MEMB     22       DOPC     H7X      HAL2     0.900000E-01   1.00800           0
      3004 MEMB     22       DOPC     H7Y      HAL2     0.900000E-01   1.00800           0
      3005 MEMB     22       DOPC     C38      CTL2    -0.180000       12.0110           0
      3006 MEMB     22       DOPC     H8X      HAL2     0.900000E-01   1.00800           0
      3007 MEMB     22       DOPC     H8Y      HAL2     0.900000E-01   1.00800           0
      3008 MEMB     22       DOPC     C39      CEL1    -0.150000       12.0110           0
      3009 MEMB     22       DOPC     H9X      HEL1     0.150000       1.00800           0
      3010 MEMB     22       DOPC     C310     CEL1    -0.150000       12.0110           0
      3011 MEMB     22       DOPC     H10X     HEL1     0.150000       1.00800           0
      3012 MEMB     22       DOPC     C311     CTL2    -0.180000       12.0110           0
      3013 MEMB     22       DOPC     H11X     HAL2     0.900000E-01   1.00800           0
      3014 MEMB     22       DOPC     H11Y     HAL2     0.900000E-01   1.00800           0
      3015 MEMB     22       DOPC     C312     CTL2    -0.180000       12.0110           0
      3016 MEMB     22       DOPC     H12X     HAL2     0.900000E-01   1.00800           0
      3017 MEMB     22       DOPC     H12Y     HAL2     0.900000E-01   1.00800           0
      3018 MEMB     22       DOPC     C313     CTL2    -0.180000       12.0110           0
      3019 MEMB     22       DOPC     H13X     HAL2     0.900000E-01   1.00800           0
      3020 MEMB     22       DOPC     H13Y     HAL2     0.900000E-01   1.00800           0
      3021 MEMB     22       DOPC     C314     CTL2    -0.180000       12.0110           0
      3022 MEMB     22       DOPC     H14X     HAL2     0.900000E-01   1.00800           0
      3023 MEMB     22       DOPC     H14Y     HAL2     0.900000E-01   1.00800           0
      3024 MEMB     22       DOPC     C315     CTL2    -0.180000       12.0110           0
      3025 MEMB     22       DOPC     H15X     HAL2     0.900000E-01   1.00800           0
      3026 MEMB     22       DOPC     H15Y     HAL2     0.900000E-01   1.00800           0
      3027 MEMB     22       DOPC     C316     CTL2    -0.180000       12.0110           0
      3028 MEMB     22       DOPC     H16X     HAL2     0.900000E-01   1.00800           0
      3029 MEMB     22       DOPC     H16Y     HAL2     0.900000E-01   1.00800           0
      3030 MEMB     22       DOPC     C317     CTL2    -0.180000       12.0110           0
      3031 MEMB     22       DOPC     H17X     HAL2     0.900000E-01   1.00800           0
      3032 MEMB     22       DOPC     H17Y     HAL2     0.900000E-01   1.00800           0
      3033 MEMB     22       DOPC     C318     CTL3    -0.270000       12.0110           0
      3034 MEMB     22       DOPC     H18X     HAL3     0.900000E-01   1.00800           0
      3035 MEMB     22       DOPC     H18Y     HAL3     0.900000E-01   1.00800           0
      3036 MEMB     22       DOPC     H18Z     HAL3     0.900000E-01   1.00800           0
      3037 MEMB     23       DOPC     N        NTL     -0.600000       14.0070           0
      3038 MEMB     23       DOPC     C12      CTL2    -0.100000       12.0110           0
      3039 MEMB     23       DOPC     H12A     HL       0.250000       1.00800           0
      3040 MEMB     23       DOPC     H12B     HL       0.250000       1.00800           0
      3041 MEMB     23       DOPC     C13      CTL5    -0.350000       12.0110           0
      3042 MEMB     23       DOPC     H13A     HL       0.250000       1.00800           0
      3043 MEMB     23       DOPC     H13B     HL       0.250000       1.00800           0
      3044 MEMB     23       DOPC     H13C     HL       0.250000       1.00800           0
      3045 MEMB     23       DOPC     C14      CTL5    -0.350000       12.0110           0
      3046 MEMB     23       DOPC     H14A     HL       0.250000       1.00800           0
      3047 MEMB     23       DOPC     H14B     HL       0.250000       1.00800           0
      3048 MEMB     23       DOPC     H14C     HL       0.250000       1.00800           0
      3049 MEMB     23       DOPC     C15      CTL5    -0.350000       12.0110           0
      3050 MEMB     23       DOPC     H15A     HL       0.250000       1.00800           0
      3051 MEMB     23       DOPC     H15B     HL       0.250000       1.00800           0
      3052 MEMB     23       DOPC     H15C     HL       0.250000       1.00800           0
      3053 MEMB     23       DOPC     C11      CTL2    -0.800000E-01   12.0110           0
      3054 MEMB     23       DOPC     H11A     HAL2     0.900000E-01   1.00800           0
      3055 MEMB     23       DOPC     H11B     HAL2     0.900000E-01   1.00800           0
      3056 MEMB     23       DOPC     P        PL        1.50000       30.9740           0
      3057 MEMB     23       DOPC     O13      O2L     -0.780000       15.9994           0
      3058 MEMB     23       DOPC     O14      O2L     -0.780000       15.9994           0
      3059 MEMB     23       DOPC     O12      OSLP    -0.570000       15.9994           0
      3060 MEMB     23       DOPC     O11      OSLP    -0.570000       15.9994           0
      3061 MEMB     23       DOPC     C1       CTL2    -0.800000E-01   12.0110           0
      3062 MEMB     23       DOPC     HA       HAL2     0.900000E-01   1.00800           0
      3063 MEMB     23       DOPC     HB       HAL2     0.900000E-01   1.00800           0
      3064 MEMB     23       DOPC     C2       CTL1     0.170000       12.0110           0
      3065 MEMB     23       DOPC     HS       HAL1     0.900000E-01   1.00800           0
      3066 MEMB     23       DOPC     O21      OSL     -0.490000       15.9994           0
      3067 MEMB     23       DOPC     C21      CL       0.900000       12.0110           0
      3068 MEMB     23       DOPC     O22      OBL     -0.630000       15.9994           0
      3069 MEMB     23       DOPC     C22      CTL2    -0.220000       12.0110           0
      3070 MEMB     23       DOPC     H2R      HAL2     0.900000E-01   1.00800           0
      3071 MEMB     23       DOPC     H2S      HAL2     0.900000E-01   1.00800           0
      3072 MEMB     23       DOPC     C3       CTL2     0.800000E-01   12.0110           0
      3073 MEMB     23       DOPC     HX       HAL2     0.900000E-01   1.00800           0
      3074 MEMB     23       DOPC     HY       HAL2     0.900000E-01   1.00800           0
      3075 MEMB     23       DOPC     O31      OSL     -0.490000       15.9994           0
      3076 MEMB     23       DOPC     C31      CL       0.900000       12.0110           0
      3077 MEMB     23       DOPC     O32      OBL     -0.630000       15.9994           0
      3078 MEMB     23       DOPC     C32      CTL2    -0.220000       12.0110           0
      3079 MEMB     23       DOPC     H2X      HAL2     0.900000E-01   1.00800           0
      3080 MEMB     23       DOPC     H2Y      HAL2     0.900000E-01   1.00800           0
      3081 MEMB     23       DOPC     C23      CTL2    -0.180000       12.0110           0
      3082 MEMB     23       DOPC     H3R      HAL2     0.900000E-01   1.00800           0
      3083 MEMB     23       DOPC     H3S      HAL2     0.900000E-01   1.00800           0
      3084 MEMB     23       DOPC     C24      CTL2    -0.180000       12.0110           0
      3085 MEMB     23       DOPC     H4R      HAL2     0.900000E-01   1.00800           0
      3086 MEMB     23       DOPC     H4S      HAL2     0.900000E-01   1.00800           0
      3087 MEMB     23       DOPC     C25      CTL2    -0.180000       12.0110           0
      3088 MEMB     23       DOPC     H5R      HAL2     0.900000E-01   1.00800           0
      3089 MEMB     23       DOPC     H5S      HAL2     0.900000E-01   1.00800           0
      3090 MEMB     23       DOPC     C26      CTL2    -0.180000       12.0110           0
      3091 MEMB     23       DOPC     H6R      HAL2     0.900000E-01   1.00800           0
      3092 MEMB     23       DOPC     H6S      HAL2     0.900000E-01   1.00800           0
      3093 MEMB     23       DOPC     C27      CTL2    -0.180000       12.0110           0
      3094 MEMB     23       DOPC     H7R      HAL2     0.900000E-01   1.00800           0
      3095 MEMB     23       DOPC     H7S      HAL2     0.900000E-01   1.00800           0
      3096 MEMB     23       DOPC     C28      CTL2    -0.180000       12.0110           0
      3097 MEMB     23       DOPC     H8R      HAL2     0.900000E-01   1.00800           0
      3098 MEMB     23       DOPC     H8S      HAL2     0.900000E-01   1.00800           0
      3099 MEMB     23       DOPC     C29      CEL1    -0.150000       12.0110           0
      3100 MEMB     23       DOPC     H9R      HEL1     0.150000       1.00800           0
      3101 MEMB     23       DOPC     C210     CEL1    -0.150000       12.0110           0
      3102 MEMB     23       DOPC     H10R     HEL1     0.150000       1.00800           0
      3103 MEMB     23       DOPC     C211     CTL2    -0.180000       12.0110           0
      3104 MEMB     23       DOPC     H11R     HAL2     0.900000E-01   1.00800           0
      3105 MEMB     23       DOPC     H11S     HAL2     0.900000E-01   1.00800           0
      3106 MEMB     23       DOPC     C212     CTL2    -0.180000       12.0110           0
      3107 MEMB     23       DOPC     H12R     HAL2     0.900000E-01   1.00800           0
      3108 MEMB     23       DOPC     H12S     HAL2     0.900000E-01   1.00800           0
      3109 MEMB     23       DOPC     C213     CTL2    -0.180000       12.0110           0
      3110 MEMB     23       DOPC     H13R     HAL2     0.900000E-01   1.00800           0
      3111 MEMB     23       DOPC     H13S     HAL2     0.900000E-01   1.00800           0
      3112 MEMB     23       DOPC     C214     CTL2    -0.180000       12.0110           0
      3113 MEMB     23       DOPC     H14R     HAL2     0.900000E-01   1.00800           0
      3114 MEMB     23       DOPC     H14S     HAL2     0.900000E-01   1.00800           0
      3115 MEMB     23       DOPC     C215     CTL2    -0.180000       12.0110           0
      3116 MEMB     23       DOPC     H15R     HAL2     0.900000E-01   1.00800           0
      3117 MEMB     23       DOPC     H15S     HAL2     0.900000E-01   1.00800           0
      3118 MEMB     23       DOPC     C216     CTL2    -0.180000       12.0110           0
      3119 MEMB     23       DOPC     H16R     HAL2     0.900000E-01   1.00800           0
      3120 MEMB     23       DOPC     H16S     HAL2     0.900000E-01   1.00800           0
      3121 MEMB     23       DOPC     C217     CTL2    -0.180000       12.0110           0
      3122 MEMB     23       DOPC     H17R     HAL2     0.900000E-01   1.00800           0
      3123 MEMB     23       DOPC     H17S     HAL2     0.900000E-01   1.00800           0
      3124 MEMB     23       DOPC     C218     CTL3    -0.270000       12.0110           0
      3125 MEMB     23       DOPC     H18R     HAL3     0.900000E-01   1.00800           0
      3126 MEMB     23       DOPC     H18S     HAL3     0.900000E-01   1.00800           0
      3127 MEMB     23       DOPC     H18T     HAL3     0.900000E-01   1.00800           0
      3128 MEMB     23       DOPC     C33      CTL2    -0.180000       12.0110           0
      3129 MEMB     23       DOPC     H3X      HAL2     0.900000E-01   1.00800           0
      3130 MEMB     23       DOPC     H3Y      HAL2     0.900000E-01   1.00800           0
      3131 MEMB     23       DOPC     C34      CTL2    -0.180000       12.0110           0
      3132 MEMB     23       DOPC     H4X      HAL2     0.900000E-01   1.00800           0
      3133 MEMB     23       DOPC     H4Y      HAL2     0.900000E-01   1.00800           0
      3134 MEMB     23       DOPC     C35      CTL2    -0.180000       12.0110           0
      3135 MEMB     23       DOPC     H5X      HAL2     0.900000E-01   1.00800           0
      3136 MEMB     23       DOPC     H5Y      HAL2     0.900000E-01   1.00800           0
      3137 MEMB     23       DOPC     C36      CTL2    -0.180000       12.0110           0
      3138 MEMB     23       DOPC     H6X      HAL2     0.900000E-01   1.00800           0
      3139 MEMB     23       DOPC     H6Y      HAL2     0.900000E-01   1.00800           0
      3140 MEMB     23       DOPC     C37      CTL2    -0.180000       12.0110           0
      3141 MEMB     23       DOPC     H7X      HAL2     0.900000E-01   1.00800           0
      3142 MEMB     23       DOPC     H7Y      HAL2     0.900000E-01   1.00800           0
      3143 MEMB     23       DOPC     C38      CTL2    -0.180000       12.0110           0
      3144 MEMB     23       DOPC     H8X      HAL2     0.900000E-01   1.00800           0
      3145 MEMB     23       DOPC     H8Y      HAL2     0.900000E-01   1.00800           0
      3146 MEMB     23       DOPC     C39      CEL1    -0.150000       12.0110           0
      3147 MEMB     23       DOPC     H9X      HEL1     0.150000       1.00800           0
      3148 MEMB     23       DOPC     C310     CEL1    -0.150000       12.0110           0
      3149 MEMB     23       DOPC     H10X     HEL1     0.150000       1.00800           0
      3150 MEMB     23       DOPC     C311     CTL2    -0.180000       12.0110           0
      3151 MEMB     23       DOPC     H11X     HAL2     0.900000E-01   1.00800           0
      3152 MEMB     23       DOPC     H11Y     HAL2     0.900000E-01   1.00800           0
      3153 MEMB     23       DOPC     C312     CTL2    -0.180000       12.0110           0
      3154 MEMB     23       DOPC     H12X     HAL2     0.900000E-01   1.00800           0
      3155 MEMB     23       DOPC     H12Y     HAL2     0.900000E-01   1.00800           0
      3156 MEMB     23       DOPC     C313     CTL2    -0.180000       12.0110           0
      3157 MEMB     23       DOPC     H13X     HAL2     0.900000E-01   1.00800           0
      3158 MEMB     23       DOPC     H13Y     HAL2     0.900000E-01   1.00800           0
      3159 MEMB     23       DOPC     C314     CTL2    -0.180000       12.0110           0
      3160 MEMB     23       DOPC     H14X     HAL2     0.900000E-01   1.00800           0
      3161 MEMB     23       DOPC     H14Y     HAL2     0.900000E-01   1.00800           0
      3162 MEMB     23       DOPC     C315     CTL2    -0.180000       12.0110           0
      3163 MEMB     23       DOPC     H15X     HAL2     0.900000E-01   1.00800           0
      3164 MEMB     23       DOPC     H15Y     HAL2     0.900000E-01   1.00800           0
      3165 MEMB     23       DOPC     C316     CTL2    -0.180000       12.0110           0
      3166 MEMB     23       DOPC     H16X     HAL2     0.900000E-01   1.00800           0
      3167 MEMB     23       DOPC     H16Y     HAL2     0.900000E-01   1.00800           0
      3168 MEMB     23       DOPC     C317     CTL2    -0.180000       12.0110           0
      3169 MEMB     23       DOPC     H17X     HAL2     0.900000E-01   1.00800           0
      3170 MEMB     23       DOPC     H17Y     HAL2     0.900000E-01   1.00800           0
      3171 MEMB     23       DOPC     C318     CTL3    -0.270000       12.0110           0
      3172 MEMB     23       DOPC     H18X     HAL3     0.900000E-01   1.00800           0
      3173 MEMB     23       DOPC     H18Y     HAL3     0.900000E-01   1.00800           0
      3174 MEMB     23       DOPC     H18Z     HAL3     0.900000E-01   1.00800           0
      3175 MEMB     24       DOPC     N        NTL     -0.600000       14.0070           0
      3176 MEMB     24       DOPC     C12      CTL2    -0.100000       12.0110           0
      3177 MEMB     24       DOPC     H12A     HL       0.250000       1.00800           0
      3178 MEMB     24       DOPC     H12B     HL       0.250000       1.00800           0
      3179 MEMB     24       DOPC     C13      CTL5    -0.350000       12.0110           0
      3180 MEMB     24       DOPC     H13A     HL       0.250000       1.00800           0
      3181 MEMB     24       DOPC     H13B     HL       0.250000       1.00800           0
      3182 MEMB     24       DOPC     H13C     HL       0.250000       1.00800           0
      3183 MEMB     24       DOPC     C14      CTL5    -0.350000       12.0110           0
      3184 MEMB     24       DOPC     H14A     HL       0.250000       1.00800           0
      3185 MEMB     24       DOPC     H14B     HL       0.250000       1.00800           0
      3186 MEMB     24       DOPC     H14C     HL       0.250000       1.00800           0
      3187 MEMB     24       DOPC     C15      CTL5    -0.350000       12.0110           0
      3188 MEMB     24       DOPC     H15A     HL       0.250000       1.00800           0
      3189 MEMB     24       DOPC     H15B     HL       0.250000       1.00800           0
      3190 MEMB     24       DOPC     H15C     HL       0.250000       1.00800           0
      3191 MEMB     24       DOPC     C11      CTL2    -0.800000E-01   12.0110           0
      3192 MEMB     24       DOPC     H11A     HAL2     0.900000E-01   1.00800           0
      3193 MEMB     24       DOPC     H11B     HAL2     0.900000E-01   1.00800           0
      3194 MEMB     24       DOPC     P        PL        1.50000       30.9740           0
      3195 MEMB     24       DOPC     O13      O2L     -0.780000       15.9994           0
      3196 MEMB     24       DOPC     O14      O2L     -0.780000       15.9994           0
      3197 MEMB     24       DOPC     O12      OSLP    -0.570000       15.9994           0
      3198 MEMB     24       DOPC     O11      OSLP    -0.570000       15.9994           0
      3199 MEMB     24       DOPC     C1       CTL2    -0.800000E-01   12.0110           0
      3200 MEMB     24       DOPC     HA       HAL2     0.900000E-01   1.00800           0
      3201 MEMB     24       DOPC     HB       HAL2     0.900000E-01   1.00800           0
      3202 MEMB     24       DOPC     C2       CTL1     0.170000       12.0110           0
      3203 MEMB     24       DOPC     HS       HAL1     0.900000E-01   1.00800           0
      3204 MEMB     24       DOPC     O21      OSL     -0.490000       15.9994           0
      3205 MEMB     24       DOPC     C21      CL       0.900000       12.0110           0
      3206 MEMB     24       DOPC     O22      OBL     -0.630000       15.9994           0
      3207 MEMB     24       DOPC     C22      CTL2    -0.220000       12.0110           0
      3208 MEMB     24       DOPC     H2R      HAL2     0.900000E-01   1.00800           0
      3209 MEMB     24       DOPC     H2S      HAL2     0.900000E-01   1.00800           0
      3210 MEMB     24       DOPC     C3       CTL2     0.800000E-01   12.0110           0
      3211 MEMB     24       DOPC     HX       HAL2     0.900000E-01   1.00800           0
      3212 MEMB     24       DOPC     HY       HAL2     0.900000E-01   1.00800           0
      3213 MEMB     24       DOPC     O31      OSL     -0.490000       15.9994           0
      3214 MEMB     24       DOPC     C31      CL       0.900000       12.0110           0
      3215 MEMB     24       DOPC     O32      OBL     -0.630000       15.9994           0
      3216 MEMB     24       DOPC     C32      CTL2    -0.220000       12.0110           0
      3217 MEMB     24       DOPC     H2X      HAL2     0.900000E-01   1.00800           0
      3218 MEMB     24       DOPC     H2Y      HAL2     0.900000E-01   1.00800           0
      3219 MEMB     24       DOPC     C23      CTL2    -0.180000       12.0110           0
      3220 MEMB     24       DOPC     H3R      HAL2     0.900000E-01   1.00800           0
      3221 MEMB     24       DOPC     H3S      HAL2     0.900000E-01   1.00800           0
      3222 MEMB     24       DOPC     C24      CTL2    -0.180000       12.0110           0
      3223 MEMB     24       DOPC     H4R      HAL2     0.900000E-01   1.00800           0
      3224 MEMB     24       DOPC     H4S      HAL2     0.900000E-01   1.00800           0
      3225 MEMB     24       DOPC     C25      CTL2    -0.180000       12.0110           0
      3226 MEMB     24       DOPC     H5R      HAL2     0.900000E-01   1.00800           0
      3227 MEMB     24       DOPC     H5S      HAL2     0.900000E-01   1.00800           0
      3228 MEMB     24       DOPC     C26      CTL2    -0.180000       12.0110           0
      3229 MEMB     24       DOPC     H6R      HAL2     0.900000E-01   1.00800           0
      3230 MEMB     24       DOPC     H6S      HAL2     0.900000E-01   1.00800           0
      3231 MEMB     24       DOPC     C27      CTL2    -0.180000       12.0110           0
      3232 MEMB     24       DOPC     H7R      HAL2     0.900000E-01   1.00800           0
      3233 MEMB     24       DOPC     H7S      HAL2     0.900000E-01   1.00800           0
      3234 MEMB     24       DOPC     C28      CTL2    -0.180000       12.0110           0
      3235 MEMB     24       DOPC     H8R      HAL2     0.900000E-01   1.00800           0
      3236 MEMB     24       DOPC     H8S      HAL2     0.900000E-01   1.00800           0
      3237 MEMB     24       DOPC     C29      CEL1    -0.150000       12.0110           0
      3238 MEMB     24       DOPC     H9R      HEL1     0.150000       1.00800           0
      3239 MEMB     24       DOPC     C210     CEL1    -0.150000       12.0110           0
      3240 MEMB     24       DOPC     H10R     HEL1     0.150000       1.00800           0
      3241 MEMB     24       DOPC     C211     CTL2    -0.180000       12.0110           0
      3242 MEMB     24       DOPC     H11R     HAL2     0.900000E-01   1.00800           0
      3243 MEMB     24       DOPC     H11S     HAL2     0.900000E-01   1.00800           0
      3244 MEMB     24       DOPC     C212     CTL2    -0.180000       12.0110           0
      3245 MEMB     24       DOPC     H12R     HAL2     0.900000E-01   1.00800           0
      3246 MEMB     24       DOPC     H12S     HAL2     0.900000E-01   1.00800           0
      3247 MEMB     24       DOPC     C213     CTL2    -0.180000       12.0110           0
      3248 MEMB     24       DOPC     H13R     HAL2     0.900000E-01   1.00800           0
      3249 MEMB     24       DOPC     H13S     HAL2     0.900000E-01   1.00800           0
      3250 MEMB     24       DOPC     C214     CTL2    -0.180000       12.0110           0
      3251 MEMB     24       DOPC     H14R     HAL2     0.900000E-01   1.00800           0
      3252 MEMB     24       DOPC     H14S     HAL2     0.900000E-01   1.00800           0
      3253 MEMB     24       DOPC     C215     CTL2    -0.180000       12.0110           0
      3254 MEMB     24       DOPC     H15R     HAL2     0.900000E-01   1.00800           0
      3255 MEMB     24       DOPC     H15S     HAL2     0.900000E-01   1.00800           0
      3256 MEMB     24       DOPC     C216     CTL2    -0.180000       12.0110           0
      3257 MEMB     24       DOPC     H16R     HAL2     0.900000E-01   1.00800           0
      3258 MEMB     24       DOPC     H16S     HAL2     0.900000E-01   1.00800           0
      3259 MEMB     24       DOPC     C217     CTL2    -0.180000       12.0110           0
      3260 MEMB     24       DOPC     H17R     HAL2     0.900000E-01   1.00800           0
      3261 MEMB     24       DOPC     H17S     HAL2     0.900000E-01   1.00800           0
      3262 MEMB     24       DOPC     C218     CTL3    -0.270000       12.0110           0
      3263 MEMB     24       DOPC     H18R     HAL3     0.900000E-01   1.00800           0
      3264 MEMB     24       DOPC     H18S     HAL3     0.900000E-01   1.00800           0
      3265 MEMB     24       DOPC     H18T     HAL3     0.900000E-01   1.00800           0
      3266 MEMB     24       DOPC     C33      CTL2    -0.180000       12.0110           0
      3267 MEMB     24       DOPC     H3X      HAL2     0.900000E-01   1.00800           0
      3268 MEMB     24       DOPC     H3Y      HAL2     0.900000E-01   1.00800           0
      3269 MEMB     24       DOPC     C34      CTL2    -0.180000       12.0110           0
      3270 MEMB     24       DOPC     H4X      HAL2     0.900000E-01   1.00800           0
      3271 MEMB     24       DOPC     H4Y      HAL2     0.900000E-01   1.00800           0
      3272 MEMB     24       DOPC     C35      CTL2    -0.180000       12.0110           0
      3273 MEMB     24       DOPC     H5X      HAL2     0.900000E-01   1.00800           0
      3274 MEMB     24       DOPC     H5Y      HAL2     0.900000E-01   1.00800           0
      3275 MEMB     24       DOPC     C36      CTL2    -0.180000       12.0110           0
      3276 MEMB     24       DOPC     H6X      HAL2     0.900000E-01   1.00800           0
      3277 MEMB     24       DOPC     H6Y      HAL2     0.900000E-01   1.00800           0
      3278 MEMB     24       DOPC     C37      CTL2    -0.180000       12.0110           0
      3279 MEMB     24       DOPC     H7X      HAL2     0.900000E-01   1.00800           0
      3280 MEMB     24       DOPC     H7Y      HAL2     0.900000E-01   1.00800           0
      3281 MEMB     24       DOPC     C38      CTL2    -0.180000       12.0110           0
      3282 MEMB     24       DOPC     H8X      HAL2     0.900000E-01   1.00800           0
      3283 MEMB     24       DOPC     H8Y      HAL2     0.900000E-01   1.00800           0
      3284 MEMB     24       DOPC     C39      CEL1    -0.150000       12.0110           0
      3285 MEMB     24       DOPC     H9X      HEL1     0.150000       1.00800           0
      3286 MEMB     24       DOPC     C310     CEL1    -0.150000       12.0110           0
      3287 MEMB     24       DOPC     H10X     HEL1     0.150000       1.00800           0
      3288 MEMB     24       DOPC     C311     CTL2    -0.180000       12.0110           0
      3289 MEMB     24       DOPC     H11X     HAL2     0.900000E-01   1.00800           0
      3290 MEMB     24       DOPC     H11Y     HAL2     0.900000E-01   1.00800           0
      3291 MEMB     24       DOPC     C312     CTL2    -0.180000       12.0110           0
      3292 MEMB     24       DOPC     H12X     HAL2     0.900000E-01   1.00800           0
      3293 MEMB     24       DOPC     H12Y     HAL2     0.900000E-01   1.00800           0
      3294 MEMB     24       DOPC     C313     CTL2    -0.180000       12.0110           0
      3295 MEMB     24       DOPC     H13X     HAL2     0.900000E-01   1.00800           0
      3296 MEMB     24       DOPC     H13Y     HAL2     0.900000E-01   1.00800           0
      3297 MEMB     24       DOPC     C314     CTL2    -0.180000       12.0110           0
      3298 MEMB     24       DOPC     H14X     HAL2     0.900000E-01   1.00800           0
      3299 MEMB     24       DOPC     H14Y     HAL2     0.900000E-01   1.00800           0
      3300 MEMB     24       DOPC     C315     CTL2    -0.180000       12.0110           0
      3301 MEMB     24       DOPC     H15X     HAL2     0.900000E-01   1.00800           0
      3302 MEMB     24       DOPC     H15Y     HAL2     0.900000E-01   1.00800           0
      3303 MEMB     24       DOPC     C316     CTL2    -0.180000       12.0110           0
      3304 MEMB     24       DOPC     H16X     HAL2     0.900000E-01   1.00800           0
      3305 MEMB     24       DOPC     H16Y     HAL2     0.900000E-01   1.00800           0
      3306 MEMB     24       DOPC     C317     CTL2    -0.180000       12.0110           0
      3307 MEMB     24       DOPC     H17X     HAL2     0.900000E-01   1.00800           0
      3308 MEMB     24       DOPC     H17Y     HAL2     0.900000E-01   1.00800           0
      3309 MEMB     24       DOPC     C318     CTL3    -0.270000       12.0110           0
      3310 MEMB     24       DOPC     H18X     HAL3     0.900000E-01   1.00800           0
      3311 MEMB     24       DOPC     H18Y     HAL3     0.900000E-01   1.00800           0
      3312 MEMB     24       DOPC     H18Z     HAL3     0.900000E-01   1.00800           0
      3313 MEMB     25       DOPC     N        NTL     -0.600000       14.0070           0
      3314 MEMB     25       DOPC     C12      CTL2    -0.100000       12.0110           0
      3315 MEMB     25       DOPC     H12A     HL       0.250000       1.00800           0
      3316 MEMB     25       DOPC     H12B     HL       0.250000       1.00800           0
      3317 MEMB     25       DOPC     C13      CTL5    -0.350000       12.0110           0
      3318 MEMB     25       DOPC     H13A     HL       0.250000       1.00800           0
      3319 MEMB     25       DOPC     H13B     HL       0.250000       1.00800           0
      3320 MEMB     25       DOPC     H13C     HL       0.250000       1.00800           0
      3321 MEMB     25       DOPC     C14      CTL5    -0.350000       12.0110           0
      3322 MEMB     25       DOPC     H14A     HL       0.250000       1.00800           0
      3323 MEMB     25       DOPC     H14B     HL       0.250000       1.00800           0
      3324 MEMB     25       DOPC     H14C     HL       0.250000       1.00800           0
      3325 MEMB     25       DOPC     C15      CTL5    -0.350000       12.0110           0
      3326 MEMB     25       DOPC     H15A     HL       0.250000       1.00800           0
      3327 MEMB     25       DOPC     H15B     HL       0.250000       1.00800           0
      3328 MEMB     25       DOPC     H15C     HL       0.250000       1.00800           0
      3329 MEMB     25       DOPC     C11      CTL2    -0.800000E-01   12.0110           0
      3330 MEMB     25       DOPC     H11A     HAL2     0.900000E-01   1.00800           0
      3331 MEMB     25       DOPC     H11B     HAL2     0.900000E-01   1.00800           0
      3332 MEMB     25       DOPC     P        PL        1.50000       30.9740           0
      3333 MEMB     25       DOPC     O13      O2L     -0.780000       15.9994           0
      3334 MEMB     25       DOPC     O14      O2L     -0.780000       15.9994           0
      3335 MEMB     25       DOPC     O12      OSLP    -0.570000       15.9994           0
      3336 MEMB     25       DOPC     O11      OSLP    -0.570000       15.9994           0
      3337 MEMB     25       DOPC     C1       CTL2    -0.800000E-01   12.0110           0
      3338 MEMB     25       DOPC     HA       HAL2     0.900000E-01   1.00800           0
      3339 MEMB     25       DOPC     HB       HAL2     0.900000E-01   1.00800           0
      3340 MEMB     25       DOPC     C2       CTL1     0.170000       12.0110           0
      3341 MEMB     25       DOPC     HS       HAL1     0.900000E-01   1.00800           0
      3342 MEMB     25       DOPC     O21      OSL     -0.490000       15.9994           0
      3343 MEMB     25       DOPC     C21      CL       0.900000       12.0110           0
      3344 MEMB     25       DOPC     O22      OBL     -0.630000       15.9994           0
      3345 MEMB     25       DOPC     C22      CTL2    -0.220000       12.0110           0
      3346 MEMB     25       DOPC     H2R      HAL2     0.900000E-01   1.00800           0
      3347 MEMB     25       DOPC     H2S      HAL2     0.900000E-01   1.00800           0
      3348 MEMB     25       DOPC     C3       CTL2     0.800000E-01   12.0110           0
      3349 MEMB     25       DOPC     HX       HAL2     0.900000E-01   1.00800           0
      3350 MEMB     25       DOPC     HY       HAL2     0.900000E-01   1.00800           0
      3351 MEMB     25       DOPC     O31      OSL     -0.490000       15.9994           0
      3352 MEMB     25       DOPC     C31      CL       0.900000       12.0110           0
      3353 MEMB     25       DOPC     O32      OBL     -0.630000       15.9994           0
      3354 MEMB     25       DOPC     C32      CTL2    -0.220000       12.0110           0
      3355 MEMB     25       DOPC     H2X      HAL2     0.900000E-01   1.00800           0
      3356 MEMB     25       DOPC     H2Y      HAL2     0.900000E-01   1.00800           0
      3357 MEMB     25       DOPC     C23      CTL2    -0.180000       12.0110           0
      3358 MEMB     25       DOPC     H3R      HAL2     0.900000E-01   1.00800           0
      3359 MEMB     25       DOPC     H3S      HAL2     0.900000E-01   1.00800           0
      3360 MEMB     25       DOPC     C24      CTL2    -0.180000       12.0110           0
      3361 MEMB     25       DOPC     H4R      HAL2     0.900000E-01   1.00800           0
      3362 MEMB     25       DOPC     H4S      HAL2     0.900000E-01   1.00800           0
      3363 MEMB     25       DOPC     C25      CTL2    -0.180000       12.0110           0
      3364 MEMB     25       DOPC     H5R      HAL2     0.900000E-01   1.00800           0
      3365 MEMB     25       DOPC     H5S      HAL2     0.900000E-01   1.00800           0
      3366 MEMB     25       DOPC     C26      CTL2    -0.180000       12.0110           0
      3367 MEMB     25       DOPC     H6R      HAL2     0.900000E-01   1.00800           0
      3368 MEMB     25       DOPC     H6S      HAL2     0.900000E-01   1.00800           0
      3369 MEMB     25       DOPC     C27      CTL2    -0.180000       12.0110           0
      3370 MEMB     25       DOPC     H7R      HAL2     0.900000E-01   1.00800           0
      3371 MEMB     25       DOPC     H7S      HAL2     0.900000E-01   1.00800           0
      3372 MEMB     25       DOPC     C28      CTL2    -0.180000       12.0110           0
      3373 MEMB     25       DOPC     H8R      HAL2     0.900000E-01   1.00800           0
      3374 MEMB     25       DOPC     H8S      HAL2     0.900000E-01   1.00800           0
      3375 MEMB     25       DOPC     C29      CEL1    -0.150000       12.0110           0
      3376 MEMB     25       DOPC     H9R      HEL1     0.150000       1.00800           0
      3377 MEMB     25       DOPC     C210     CEL1    -0.150000       12.0110           0
      3378 MEMB     25       DOPC     H10R     HEL1     0.150000       1.00800           0
      3379 MEMB     25       DOPC     C211     CTL2    -0.180000       12.0110           0
      3380 MEMB     25       DOPC     H11R     HAL2     0.900000E-01   1.00800           0
      3381 MEMB     25       DOPC     H11S     HAL2     0.900000E-01   1.00800           0
      3382 MEMB     25       DOPC     C212     CTL2    -0.180000       12.0110           0
      3383 MEMB     25       DOPC     H12R     HAL2     0.900000E-01   1.00800           0
      3384 MEMB     25       DOPC     H12S     HAL2     0.900000E-01   1.00800           0
      3385 MEMB     25       DOPC     C213     CTL2    -0.180000       12.0110           0
      3386 MEMB     25       DOPC     H13R     HAL2     0.900000E-01   1.00800           0
      3387 MEMB     25       DOPC     H13S     HAL2     0.900000E-01   1.00800           0
      3388 MEMB     25       DOPC     C214     CTL2    -0.180000       12.0110           0
      3389 MEMB     25       DOPC     H14R     HAL2     0.900000E-01   1.00800           0
      3390 MEMB     25       DOPC     H14S     HAL2     0.900000E-01   1.00800           0
      3391 MEMB     25       DOPC     C215     CTL2    -0.180000       12.0110           0
      3392 MEMB     25       DOPC     H15R     HAL2     0.900000E-01   1.00800           0
      3393 MEMB     25       DOPC     H15S     HAL2     0.900000E-01   1.00800           0
      3394 MEMB     25       DOPC     C216     CTL2    -0.180000       12.0110           0
      3395 MEMB     25       DOPC     H16R     HAL2     0.900000E-01   1.00800           0
      3396 MEMB     25       DOPC     H16S     HAL2     0.900000E-01   1.00800           0
      3397 MEMB     25       DOPC     C217     CTL2    -0.180000       12.0110           0
      3398 MEMB     25       DOPC     H17R     HAL2     0.900000E-01   1.00800           0
      3399 MEMB     25       DOPC     H17S     HAL2     0.900000E-01   1.00800           0
      3400 MEMB     25       DOPC     C218     CTL3    -0.270000       12.0110           0
      3401 MEMB     25       DOPC     H18R     HAL3     0.900000E-01   1.00800           0
      3402 MEMB     25       DOPC     H18S     HAL3     0.900000E-01   1.00800           0
      3403 MEMB     25       DOPC     H18T     HAL3     0.900000E-01   1.00800           0
      3404 MEMB     25       DOPC     C33      CTL2    -0.180000       12.0110           0
      3405 MEMB     25       DOPC     H3X      HAL2     0.900000E-01   1.00800           0
      3406 MEMB     25       DOPC     H3Y      HAL2     0.900000E-01   1.00800           0
      3407 MEMB     25       DOPC     C34      CTL2    -0.180000       12.0110           0
      3408 MEMB     25       DOPC     H4X      HAL2     0.900000E-01   1.00800           0
      3409 MEMB     25       DOPC     H4Y      HAL2     0.900000E-01   1.00800           0
      3410 MEMB     25       DOPC     C35      CTL2    -0.180000       12.0110           0
      3411 MEMB     25       DOPC     H5X      HAL2     0.900000E-01   1.00800           0
      3412 MEMB     25       DOPC     H5Y      HAL2     0.900000E-01   1.00800           0
      3413 MEMB     25       DOPC     C36      CTL2    -0.180000       12.0110           0
      3414 MEMB     25       DOPC     H6X      HAL2     0.900000E-01   1.00800           0
      3415 MEMB     25       DOPC     H6Y      HAL2     0.900000E-01   1.00800           0
      3416 MEMB     25       DOPC     C37      CTL2    -0.180000       12.0110           0
      3417 MEMB     25       DOPC     H7X      HAL2     0.900000E-01   1.00800           0
      3418 MEMB     25       DOPC     H7Y      HAL2     0.900000E-01   1.00800           0
      3419 MEMB     25       DOPC     C38      CTL2    -0.180000       12.0110           0
      3420 MEMB     25       DOPC     H8X      HAL2     0.900000E-01   1.00800           0
      3421 MEMB     25       DOPC     H8Y      HAL2     0.900000E-01   1.00800           0
      3422 MEMB     25       DOPC     C39      CEL1    -0.150000       12.0110           0
      3423 MEMB     25       DOPC     H9X      HEL1     0.150000       1.00800           0
      3424 MEMB     25       DOPC     C310     CEL1    -0.150000       12.0110           0
      3425 MEMB     25       DOPC     H10X     HEL1     0.150000       1.00800           0
      3426 MEMB     25       DOPC     C311     CTL2    -0.180000       12.0110           0
      3427 MEMB     25       DOPC     H11X     HAL2     0.900000E-01   1.00800           0
      3428 MEMB     25       DOPC     H11Y     HAL2     0.900000E-01   1.00800           0
      3429 MEMB     25       DOPC     C312     CTL2    -0.180000       12.0110           0
      3430 MEMB     25       DOPC     H12X     HAL2     0.900000E-01   1.00800           0
      3431 MEMB     25       DOPC     H12Y     HAL2     0.900000E-01   1.00800           0
      3432 MEMB     25       DOPC     C313     CTL2    -0.180000       12.0110           0
      3433 MEMB     25       DOPC     H13X     HAL2     0.900000E-01   1.00800           0
      3434 MEMB     25       DOPC     H13Y     HAL2     0.900000E-01   1.00800           0
      3435 MEMB     25       DOPC     C314     CTL2    -0.180000       12.0110           0
      3436 MEMB     25       DOPC     H14X     HAL2     0.900000E-01   1.00800           0
      3437 MEMB     25       DOPC     H14Y     HAL2     0.900000E-01   1.00800           0
      3438 MEMB     25       DOPC     C315     CTL2    -0.180000       12.0110           0
      3439 MEMB     25       DOPC     H15X     HAL2     0.900000E-01   1.00800           0
      3440 MEMB     25       DOPC     H15Y     HAL2     0.900000E-01   1.00800           0
      3441 MEMB     25       DOPC     C316     CTL2    -0.180000       12.0110           0
      3442 MEMB     25       DOPC     H16X     HAL2     0.900000E-01   1.00800           0
      3443 MEMB     25       DOPC     H16Y     HAL2     0.900000E-01   1.00800           0
      3444 MEMB     25       DOPC     C317     CTL2    -0.180000       12.0110           0
      3445 MEMB     25       DOPC     H17X     HAL2     0.900000E-01   1.00800           0
      3446 MEMB     25       DOPC     H17Y     HAL2     0.900000E-01   1.00800           0
      3447 MEMB     25       DOPC     C318     CTL3    -0.270000       12.0110           0
      3448 MEMB     25       DOPC     H18X     HAL3     0.900000E-01   1.00800           0
      3449 MEMB     25       DOPC     H18Y     HAL3     0.900000E-01   1.00800           0
      3450 MEMB     25       DOPC     H18Z     HAL3     0.900000E-01   1.00800           0
      3451 MEMB     26       DOPC     N        NTL     -0.600000       14.0070           0
      3452 MEMB     26       DOPC     C12      CTL2    -0.100000       12.0110           0
      3453 MEMB     26       DOPC     H12A     HL       0.250000       1.00800           0
      3454 MEMB     26       DOPC     H12B     HL       0.250000       1.00800           0
      3455 MEMB     26       DOPC     C13      CTL5    -0.350000       12.0110           0
      3456 MEMB     26       DOPC     H13A     HL       0.250000       1.00800           0
      3457 MEMB     26       DOPC     H13B     HL       0.250000       1.00800           0
      3458 MEMB     26       DOPC     H13C     HL       0.250000       1.00800           0
      3459 MEMB     26       DOPC     C14      CTL5    -0.350000       12.0110           0
      3460 MEMB     26       DOPC     H14A     HL       0.250000       1.00800           0
      3461 MEMB     26       DOPC     H14B     HL       0.250000       1.00800           0
      3462 MEMB     26       DOPC     H14C     HL       0.250000       1.00800           0
      3463 MEMB     26       DOPC     C15      CTL5    -0.350000       12.0110           0
      3464 MEMB     26       DOPC     H15A     HL       0.250000       1.00800           0
      3465 MEMB     26       DOPC     H15B     HL       0.250000       1.00800           0
      3466 MEMB     26       DOPC     H15C     HL       0.250000       1.00800           0
      3467 MEMB     26       DOPC     C11      CTL2    -0.800000E-01   12.0110           0
      3468 MEMB     26       DOPC     H11A     HAL2     0.900000E-01   1.00800           0
      3469 MEMB     26       DOPC     H11B     HAL2     0.900000E-01   1.00800           0
      3470 MEMB     26       DOPC     P        PL        1.50000       30.9740           0
      3471 MEMB     26       DOPC     O13      O2L     -0.780000       15.9994           0
      3472 MEMB     26       DOPC     O14      O2L     -0.780000       15.9994           0
      3473 MEMB     26       DOPC     O12      OSLP    -0.570000       15.9994           0
      3474 MEMB     26       DOPC     O11      OSLP    -0.570000       15.9994           0
      3475 MEMB     26       DOPC     C1       CTL2    -0.800000E-01   12.0110           0
      3476 MEMB     26       DOPC     HA       HAL2     0.900000E-01   1.00800           0
      3477 MEMB     26       DOPC     HB       HAL2     0.900000E-01   1.00800           0
      3478 MEMB     26       DOPC     C2       CTL1     0.170000       12.0110           0
      3479 MEMB     26       DOPC     HS       HAL1     0.900000E-01   1.00800           0
      3480 MEMB     26       DOPC     O21      OSL     -0.490000       15.9994           0
      3481 MEMB     26       DOPC     C21      CL       0.900000       12.0110           0
      3482 MEMB     26       DOPC     O22      OBL     -0.630000       15.9994           0
      3483 MEMB     26       DOPC     C22      CTL2    -0.220000       12.0110           0
      3484 MEMB     26       DOPC     H2R      HAL2     0.900000E-01   1.00800           0
      3485 MEMB     26       DOPC     H2S      HAL2     0.900000E-01   1.00800           0
      3486 MEMB     26       DOPC     C3       CTL2     0.800000E-01   12.0110           0
      3487 MEMB     26       DOPC     HX       HAL2     0.900000E-01   1.00800           0
      3488 MEMB     26       DOPC     HY       HAL2     0.900000E-01   1.00800           0
      3489 MEMB     26       DOPC     O31      OSL     -0.490000       15.9994           0
      3490 MEMB     26       DOPC     C31      CL       0.900000       12.0110           0
      3491 MEMB     26       DOPC     O32      OBL     -0.630000       15.9994           0
      3492 MEMB     26       DOPC     C32      CTL2    -0.220000       12.0110           0
      3493 MEMB     26       DOPC     H2X      HAL2     0.900000E-01   1.00800           0
      3494 MEMB     26       DOPC     H2Y      HAL2     0.900000E-01   1.00800           0
      3495 MEMB     26       DOPC     C23      CTL2    -0.180000       12.0110           0
      3496 MEMB     26       DOPC     H3R      HAL2     0.900000E-01   1.00800           0
      3497 MEMB     26       DOPC     H3S      HAL2     0.900000E-01   1.00800           0
      3498 MEMB     26       DOPC     C24      CTL2    -0.180000       12.0110           0
      3499 MEMB     26       DOPC     H4R      HAL2     0.900000E-01   1.00800           0
      3500 MEMB     26       DOPC     H4S      HAL2     0.900000E-01   1.00800           0
      3501 MEMB     26       DOPC     C25      CTL2    -0.180000       12.0110           0
      3502 MEMB     26       DOPC     H5R      HAL2     0.900000E-01   1.00800           0
      3503 MEMB     26       DOPC     H5S      HAL2     0.900000E-01   1.00800           0
      3504 MEMB     26       DOPC     C26      CTL2    -0.180000       12.0110           0
      3505 MEMB     26       DOPC     H6R      HAL2     0.900000E-01   1.00800           0
      3506 MEMB     26       DOPC     H6S      HAL2     0.900000E-01   1.00800           0
      3507 MEMB     26       DOPC     C27      CTL2    -0.180000       12.0110           0
      3508 MEMB     26       DOPC     H7R      HAL2     0.900000E-01   1.00800           0
      3509 MEMB     26       DOPC     H7S      HAL2     0.900000E-01   1.00800           0
      3510 MEMB     26       DOPC     C28      CTL2    -0.180000       12.0110           0
      3511 MEMB     26       DOPC     H8R      HAL2     0.900000E-01   1.00800           0
      3512 MEMB     26       DOPC     H8S      HAL2     0.900000E-01   1.00800           0
      3513 MEMB     26       DOPC     C29      CEL1    -0.150000       12.0110           0
      3514 MEMB     26       DOPC     H9R      HEL1     0.150000       1.00800           0
      3515 MEMB     26       DOPC     C210     CEL1    -0.150000       12.0110           0
      3516 MEMB     26       DOPC     H10R     HEL1     0.150000       1.00800           0
      3517 MEMB     26       DOPC     C211     CTL2    -0.180000       12.0110           0
      3518 MEMB     26       DOPC     H11R     HAL2     0.900000E-01   1.00800           0
      3519 MEMB     26       DOPC     H11S     HAL2     0.900000E-01   1.00800           0
      3520 MEMB     26       DOPC     C212     CTL2    -0.180000       12.0110           0
      3521 MEMB     26       DOPC     H12R     HAL2     0.900000E-01   1.00800           0
      3522 MEMB     26       DOPC     H12S     HAL2     0.900000E-01   1.00800           0
      3523 MEMB     26       DOPC     C213     CTL2    -0.180000       12.0110           0
      3524 MEMB     26       DOPC     H13R     HAL2     0.900000E-01   1.00800           0
      3525 MEMB     26       DOPC     H13S     HAL2     0.900000E-01   1.00800           0
      3526 MEMB     26       DOPC     C214     CTL2    -0.180000       12.0110           0
      3527 MEMB     26       DOPC     H14R     HAL2     0.900000E-01   1.00800           0
      3528 MEMB     26       DOPC     H14S     HAL2     0.900000E-01   1.00800           0
      3529 MEMB     26       DOPC     C215     CTL2    -0.180000       12.0110           0
      3530 MEMB     26       DOPC     H15R     HAL2     0.900000E-01   1.00800           0
      3531 MEMB     26       DOPC     H15S     HAL2     0.900000E-01   1.00800           0
      3532 MEMB     26       DOPC     C216     CTL2    -0.180000       12.0110           0
      3533 MEMB     26       DOPC     H16R     HAL2     0.900000E-01   1.00800           0
      3534 MEMB     26       DOPC     H16S     HAL2     0.900000E-01   1.00800           0
      3535 MEMB     26       DOPC     C217     CTL2    -0.180000       12.0110           0
      3536 MEMB     26       DOPC     H17R     HAL2     0.900000E-01   1.00800           0
      3537 MEMB     26       DOPC     H17S     HAL2     0.900000E-01   1.00800           0
      3538 MEMB     26       DOPC     C218     CTL3    -0.270000       12.0110           0
      3539 MEMB     26       DOPC     H18R     HAL3     0.900000E-01   1.00800           0
      3540 MEMB     26       DOPC     H18S     HAL3     0.900000E-01   1.00800           0
      3541 MEMB     26       DOPC     H18T     HAL3     0.900000E-01   1.00800           0
      3542 MEMB     26       DOPC     C33      CTL2    -0.180000       12.0110           0
      3543 MEMB     26       DOPC     H3X      HAL2     0.900000E-01   1.00800           0
      3544 MEMB     26       DOPC     H3Y      HAL2     0.900000E-01   1.00800           0
      3545 MEMB     26       DOPC     C34      CTL2    -0.180000       12.0110           0
      3546 MEMB     26       DOPC     H4X      HAL2     0.900000E-01   1.00800           0
      3547 MEMB     26       DOPC     H4Y      HAL2     0.900000E-01   1.00800           0
      3548 MEMB     26       DOPC     C35      CTL2    -0.180000       12.0110           0
      3549 MEMB     26       DOPC     H5X      HAL2     0.900000E-01   1.00800           0
      3550 MEMB     26       DOPC     H5Y      HAL2     0.900000E-01   1.00800           0
      3551 MEMB     26       DOPC     C36      CTL2    -0.180000       12.0110           0
      3552 MEMB     26       DOPC     H6X      HAL2     0.900000E-01   1.00800           0
      3553 MEMB     26       DOPC     H6Y      HAL2     0.900000E-01   1.00800           0
      3554 MEMB     26       DOPC     C37      CTL2    -0.180000       12.0110           0
      3555 MEMB     26       DOPC     H7X      HAL2     0.900000E-01   1.00800           0
      3556 MEMB     26       DOPC     H7Y      HAL2     0.900000E-01   1.00800           0
      3557 MEMB     26       DOPC     C38      CTL2    -0.180000       12.0110           0
      3558 MEMB     26       DOPC     H8X      HAL2     0.900000E-01   1.00800           0
      3559 MEMB     26       DOPC     H8Y      HAL2     0.900000E-01   1.00800           0
      3560 MEMB     26       DOPC     C39      CEL1    -0.150000       12.0110           0
      3561 MEMB     26       DOPC     H9X      HEL1     0.150000       1.00800           0
      3562 MEMB     26       DOPC     C310     CEL1    -0.150000       12.0110           0
      3563 MEMB     26       DOPC     H10X     HEL1     0.150000       1.00800           0
      3564 MEMB     26       DOPC     C311     CTL2    -0.180000       12.0110           0
      3565 MEMB     26       DOPC     H11X     HAL2     0.900000E-01   1.00800           0
      3566 MEMB     26       DOPC     H11Y     HAL2     0.900000E-01   1.00800           0
      3567 MEMB     26       DOPC     C312     CTL2    -0.180000       12.0110           0
      3568 MEMB     26       DOPC     H12X     HAL2     0.900000E-01   1.00800           0
      3569 MEMB     26       DOPC     H12Y     HAL2     0.900000E-01   1.00800           0
      3570 MEMB     26       DOPC     C313     CTL2    -0.180000       12.0110           0
      3571 MEMB     26       DOPC     H13X     HAL2     0.900000E-01   1.00800           0
      3572 MEMB     26       DOPC     H13Y     HAL2     0.900000E-01   1.00800           0
      3573 MEMB     26       DOPC     C314     CTL2    -0.180000       12.0110           0
      3574 MEMB     26       DOPC     H14X     HAL2     0.900000E-01   1.00800           0
      3575 MEMB     26       DOPC     H14Y     HAL2     0.900000E-01   1.00800           0
      3576 MEMB     26       DOPC     C315     CTL2    -0.180000       12.0110           0
      3577 MEMB     26       DOPC     H15X     HAL2     0.900000E-01   1.00800           0
      3578 MEMB     26       DOPC     H15Y     HAL2     0.900000E-01   1.00800           0
      3579 MEMB     26       DOPC     C316     CTL2    -0.180000       12.0110           0
      3580 MEMB     26       DOPC     H16X     HAL2     0.900000E-01   1.00800           0
      3581 MEMB     26       DOPC     H16Y     HAL2     0.900000E-01   1.00800           0
      3582 MEMB     26       DOPC     C317     CTL2    -0.180000       12.0110           0
      3583 MEMB     26       DOPC     H17X     HAL2     0.900000E-01   1.00800           0
      3584 MEMB     26       DOPC     H17Y     HAL2     0.900000E-01   1.00800           0
      3585 MEMB     26       DOPC     C318     CTL3    -0.270000       12.0110           0
      3586 MEMB     26       DOPC     H18X     HAL3     0.900000E-01   1.00800           0
      3587 MEMB     26       DOPC     H18Y     HAL3     0.900000E-01   1.00800           0
      3588 MEMB     26       DOPC     H18Z     HAL3     0.900000E-01   1.00800           0
      3589 MEMB     27       DOPC     N        NTL     -0.600000       14.0070           0
      3590 MEMB     27       DOPC     C12      CTL2    -0.100000       12.0110           0
      3591 MEMB     27       DOPC     H12A     HL       0.250000       1.00800           0
      3592 MEMB     27       DOPC     H12B     HL       0.250000       1.00800           0
      3593 MEMB     27       DOPC     C13      CTL5    -0.350000       12.0110           0
      3594 MEMB     27       DOPC     H13A     HL       0.250000       1.00800           0
      3595 MEMB     27       DOPC     H13B     HL       0.250000       1.00800           0
      3596 MEMB     27       DOPC     H13C     HL       0.250000       1.00800           0
      3597 MEMB     27       DOPC     C14      CTL5    -0.350000       12.0110           0
      3598 MEMB     27       DOPC     H14A     HL       0.250000       1.00800           0
      3599 MEMB     27       DOPC     H14B     HL       0.250000       1.00800           0
      3600 MEMB     27       DOPC     H14C     HL       0.250000       1.00800           0
      3601 MEMB     27       DOPC     C15      CTL5    -0.350000       12.0110           0
      3602 MEMB     27       DOPC     H15A     HL       0.250000       1.00800           0
      3603 MEMB     27       DOPC     H15B     HL       0.250000       1.00800           0
      3604 MEMB     27       DOPC     H15C     HL       0.250000       1.00800           0
      3605 MEMB     27       DOPC     C11      CTL2    -0.800000E-01   12.0110           0
      3606 MEMB     27       DOPC     H11A     HAL2     0.900000E-01   1.00800           0
      3607 MEMB     27       DOPC     H11B     HAL2     0.900000E-01   1.00800           0
      3608 MEMB     27       DOPC     P        PL        1.50000       30.9740           0
      3609 MEMB     27       DOPC     O13      O2L     -0.780000       15.9994           0
      3610 MEMB     27       DOPC     O14      O2L     -0.780000       15.9994           0
      3611 MEMB     27       DOPC     O12      OSLP    -0.570000       15.9994           0
      3612 MEMB     27       DOPC     O11      OSLP    -0.570000       15.9994           0
      3613 MEMB     27       DOPC     C1       CTL2    -0.800000E-01   12.0110           0
      3614 MEMB     27       DOPC     HA       HAL2     0.900000E-01   1.00800           0
      3615 MEMB     27       DOPC     HB       HAL2     0.900000E-01   1.00800           0
      3616 MEMB     27       DOPC     C2       CTL1     0.170000       12.0110           0
      3617 MEMB     27       DOPC     HS       HAL1     0.900000E-01   1.00800           0
      3618 MEMB     27       DOPC     O21      OSL     -0.490000       15.9994           0
      3619 MEMB     27       DOPC     C21      CL       0.900000       12.0110           0
      3620 MEMB     27       DOPC     O22      OBL     -0.630000       15.9994           0
      3621 MEMB     27       DOPC     C22      CTL2    -0.220000       12.0110           0
      3622 MEMB     27       DOPC     H2R      HAL2     0.900000E-01   1.00800           0
      3623 MEMB     27       DOPC     H2S      HAL2     0.900000E-01   1.00800           0
      3624 MEMB     27       DOPC     C3       CTL2     0.800000E-01   12.0110           0
      3625 MEMB     27       DOPC     HX       HAL2     0.900000E-01   1.00800           0
      3626 MEMB     27       DOPC     HY       HAL2     0.900000E-01   1.00800           0
      3627 MEMB     27       DOPC     O31      OSL     -0.490000       15.9994           0
      3628 MEMB     27       DOPC     C31      CL       0.900000       12.0110           0
      3629 MEMB     27       DOPC     O32      OBL     -0.630000       15.9994           0
      3630 MEMB     27       DOPC     C32      CTL2    -0.220000       12.0110           0
      3631 MEMB     27       DOPC     H2X      HAL2     0.900000E-01   1.00800           0
      3632 MEMB     27       DOPC     H2Y      HAL2     0.900000E-01   1.00800           0
      3633 MEMB     27       DOPC     C23      CTL2    -0.180000       12.0110           0
      3634 MEMB     27       DOPC     H3R      HAL2     0.900000E-01   1.00800           0
      3635 MEMB     27       DOPC     H3S      HAL2     0.900000E-01   1.00800           0
      3636 MEMB     27       DOPC     C24      CTL2    -0.180000       12.0110           0
      3637 MEMB     27       DOPC     H4R      HAL2     0.900000E-01   1.00800           0
      3638 MEMB     27       DOPC     H4S      HAL2     0.900000E-01   1.00800           0
      3639 MEMB     27       DOPC     C25      CTL2    -0.180000       12.0110           0
      3640 MEMB     27       DOPC     H5R      HAL2     0.900000E-01   1.00800           0
      3641 MEMB     27       DOPC     H5S      HAL2     0.900000E-01   1.00800           0
      3642 MEMB     27       DOPC     C26      CTL2    -0.180000       12.0110           0
      3643 MEMB     27       DOPC     H6R      HAL2     0.900000E-01   1.00800           0
      3644 MEMB     27       DOPC     H6S      HAL2     0.900000E-01   1.00800           0
      3645 MEMB     27       DOPC     C27      CTL2    -0.180000       12.0110           0
      3646 MEMB     27       DOPC     H7R      HAL2     0.900000E-01   1.00800           0
      3647 MEMB     27       DOPC     H7S      HAL2     0.900000E-01   1.00800           0
      3648 MEMB     27       DOPC     C28      CTL2    -0.180000       12.0110           0
      3649 MEMB     27       DOPC     H8R      HAL2     0.900000E-01   1.00800           0
      3650 MEMB     27       DOPC     H8S      HAL2     0.900000E-01   1.00800           0
      3651 MEMB     27       DOPC     C29      CEL1    -0.150000       12.0110           0
      3652 MEMB     27       DOPC     H9R      HEL1     0.150000       1.00800           0
      3653 MEMB     27       DOPC     C210     CEL1    -0.150000       12.0110           0
      3654 MEMB     27       DOPC     H10R     HEL1     0.150000       1.00800           0
      3655 MEMB     27       DOPC     C211     CTL2    -0.180000       12.0110           0
      3656 MEMB     27       DOPC     H11R     HAL2     0.900000E-01   1.00800           0
      3657 MEMB     27       DOPC     H11S     HAL2     0.900000E-01   1.00800           0
      3658 MEMB     27       DOPC     C212     CTL2    -0.180000       12.0110           0
      3659 MEMB     27       DOPC     H12R     HAL2     0.900000E-01   1.00800           0
      3660 MEMB     27       DOPC     H12S     HAL2     0.900000E-01   1.00800           0
      3661 MEMB     27       DOPC     C213     CTL2    -0.180000       12.0110           0
      3662 MEMB     27       DOPC     H13R     HAL2     0.900000E-01   1.00800           0
      3663 MEMB     27       DOPC     H13S     HAL2     0.900000E-01   1.00800           0
      3664 MEMB     27       DOPC     C214     CTL2    -0.180000       12.0110           0
      3665 MEMB     27       DOPC     H14R     HAL2     0.900000E-01   1.00800           0
      3666 MEMB     27       DOPC     H14S     HAL2     0.900000E-01   1.00800           0
      3667 MEMB     27       DOPC     C215     CTL2    -0.180000       12.0110           0
      3668 MEMB     27       DOPC     H15R     HAL2     0.900000E-01   1.00800           0
      3669 MEMB     27       DOPC     H15S     HAL2     0.900000E-01   1.00800           0
      3670 MEMB     27       DOPC     C216     CTL2    -0.180000       12.0110           0
      3671 MEMB     27       DOPC     H16R     HAL2     0.900000E-01   1.00800           0
      3672 MEMB     27       DOPC     H16S     HAL2     0.900000E-01   1.00800           0
      3673 MEMB     27       DOPC     C217     CTL2    -0.180000       12.0110           0
      3674 MEMB     27       DOPC     H17R     HAL2     0.900000E-01   1.00800           0
      3675 MEMB     27       DOPC     H17S     HAL2     0.900000E-01   1.00800           0
      3676 MEMB     27       DOPC     C218     CTL3    -0.270000       12.0110           0
      3677 MEMB     27       DOPC     H18R     HAL3     0.900000E-01   1.00800           0
      3678 MEMB     27       DOPC     H18S     HAL3     0.900000E-01   1.00800           0
      3679 MEMB     27       DOPC     H18T     HAL3     0.900000E-01   1.00800           0
      3680 MEMB     27       DOPC     C33      CTL2    -0.180000       12.0110           0
      3681 MEMB     27       DOPC     H3X      HAL2     0.900000E-01   1.00800           0
      3682 MEMB     27       DOPC     H3Y      HAL2     0.900000E-01   1.00800           0
      3683 MEMB     27       DOPC     C34      CTL2    -0.180000       12.0110           0
      3684 MEMB     27       DOPC     H4X      HAL2     0.900000E-01   1.00800           0
      3685 MEMB     27       DOPC     H4Y      HAL2     0.900000E-01   1.00800           0
      3686 MEMB     27       DOPC     C35      CTL2    -0.180000       12.0110           0
      3687 MEMB     27       DOPC     H5X      HAL2     0.900000E-01   1.00800           0
      3688 MEMB     27       DOPC     H5Y      HAL2     0.900000E-01   1.00800           0
      3689 MEMB     27       DOPC     C36      CTL2    -0.180000       12.0110           0
      3690 MEMB     27       DOPC     H6X      HAL2     0.900000E-01   1.00800           0
      3691 MEMB     27       DOPC     H6Y      HAL2     0.900000E-01   1.00800           0
      3692 MEMB     27       DOPC     C37      CTL2    -0.180000       12.0110           0
      3693 MEMB     27       DOPC     H7X      HAL2     0.900000E-01   1.00800           0
      3694 MEMB     27       DOPC     H7Y      HAL2     0.900000E-01   1.00800           0
      3695 MEMB     27       DOPC     C38      CTL2    -0.180000       12.0110           0
      3696 MEMB     27       DOPC     H8X      HAL2     0.900000E-01   1.00800           0
      3697 MEMB     27       DOPC     H8Y      HAL2     0.900000E-01   1.00800           0
      3698 MEMB     27       DOPC     C39      CEL1    -0.150000       12.0110           0
      3699 MEMB     27       DOPC     H9X      HEL1     0.150000       1.00800           0
      3700 MEMB     27       DOPC     C310     CEL1    -0.150000       12.0110           0
      3701 MEMB     27       DOPC     H10X     HEL1     0.150000       1.00800           0
      3702 MEMB     27       DOPC     C311     CTL2    -0.180000       12.0110           0
      3703 MEMB     27       DOPC     H11X     HAL2     0.900000E-01   1.00800           0
      3704 MEMB     27       DOPC     H11Y     HAL2     0.900000E-01   1.00800           0
      3705 MEMB     27       DOPC     C312     CTL2    -0.180000       12.0110           0
      3706 MEMB     27       DOPC     H12X     HAL2     0.900000E-01   1.00800           0
      3707 MEMB     27       DOPC     H12Y     HAL2     0.900000E-01   1.00800           0
      3708 MEMB     27       DOPC     C313     CTL2    -0.180000       12.0110           0
      3709 MEMB     27       DOPC     H13X     HAL2     0.900000E-01   1.00800           0
      3710 MEMB     27       DOPC     H13Y     HAL2     0.900000E-01   1.00800           0
      3711 MEMB     27       DOPC     C314     CTL2    -0.180000       12.0110           0
      3712 MEMB     27       DOPC     H14X     HAL2     0.900000E-01   1.00800           0
      3713 MEMB     27       DOPC     H14Y     HAL2     0.900000E-01   1.00800           0
      3714 MEMB     27       DOPC     C315     CTL2    -0.180000       12.0110           0
      3715 MEMB     27       DOPC     H15X     HAL2     0.900000E-01   1.00800           0
      3716 MEMB     27       DOPC     H15Y     HAL2     0.900000E-01   1.00800           0
      3717 MEMB     27       DOPC     C316     CTL2    -0.180000       12.0110           0
      3718 MEMB     27       DOPC     H16X     HAL2     0.900000E-01   1.00800           0
      3719 MEMB     27       DOPC     H16Y     HAL2     0.900000E-01   1.00800           0
      3720 MEMB     27       DOPC     C317     CTL2    -0.180000       12.0110           0
      3721 MEMB     27       DOPC     H17X     HAL2     0.900000E-01   1.00800           0
      3722 MEMB     27       DOPC     H17Y     HAL2     0.900000E-01   1.00800           0
      3723 MEMB     27       DOPC     C318     CTL3    -0.270000       12.0110           0
      3724 MEMB     27       DOPC     H18X     HAL3     0.900000E-01   1.00800           0
      3725 MEMB     27       DOPC     H18Y     HAL3     0.900000E-01   1.00800           0
      3726 MEMB     27       DOPC     H18Z     HAL3     0.900000E-01   1.00800           0
      3727 MEMB     28       DOPC     N        NTL     -0.600000       14.0070           0
      3728 MEMB     28       DOPC     C12      CTL2    -0.100000       12.0110           0
      3729 MEMB     28       DOPC     H12A     HL       0.250000       1.00800           0
      3730 MEMB     28       DOPC     H12B     HL       0.250000       1.00800           0
      3731 MEMB     28       DOPC     C13      CTL5    -0.350000       12.0110           0
      3732 MEMB     28       DOPC     H13A     HL       0.250000       1.00800           0
      3733 MEMB     28       DOPC     H13B     HL       0.250000       1.00800           0
      3734 MEMB     28       DOPC     H13C     HL       0.250000       1.00800           0
      3735 MEMB     28       DOPC     C14      CTL5    -0.350000       12.0110           0
      3736 MEMB     28       DOPC     H14A     HL       0.250000       1.00800           0
      3737 MEMB     28       DOPC     H14B     HL       0.250000       1.00800           0
      3738 MEMB     28       DOPC     H14C     HL       0.250000       1.00800           0
      3739 MEMB     28       DOPC     C15      CTL5    -0.350000       12.0110           0
      3740 MEMB     28       DOPC     H15A     HL       0.250000       1.00800           0
      3741 MEMB     28       DOPC     H15B     HL       0.250000       1.00800           0
      3742 MEMB     28       DOPC     H15C     HL       0.250000       1.00800           0
      3743 MEMB     28       DOPC     C11      CTL2    -0.800000E-01   12.0110           0
      3744 MEMB     28       DOPC     H11A     HAL2     0.900000E-01   1.00800           0
      3745 MEMB     28       DOPC     H11B     HAL2     0.900000E-01   1.00800           0
      3746 MEMB     28       DOPC     P        PL        1.50000       30.9740           0
      3747 MEMB     28       DOPC     O13      O2L     -0.780000       15.9994           0
      3748 MEMB     28       DOPC     O14      O2L     -0.780000       15.9994           0
      3749 MEMB     28       DOPC     O12      OSLP    -0.570000       15.9994           0
      3750 MEMB     28       DOPC     O11      OSLP    -0.570000       15.9994           0
      3751 MEMB     28       DOPC     C1       CTL2    -0.800000E-01   12.0110           0
      3752 MEMB     28       DOPC     HA       HAL2     0.900000E-01   1.00800           0
      3753 MEMB     28       DOPC     HB       HAL2     0.900000E-01   1.00800           0
      3754 MEMB     28       DOPC     C2       CTL1     0.170000       12.0110           0
      3755 MEMB     28       DOPC     HS       HAL1     0.900000E-01   1.00800           0
      3756 MEMB     28       DOPC     O21      OSL     -0.490000       15.9994           0
      3757 MEMB     28       DOPC     C21      CL       0.900000       12.0110           0
      3758 MEMB     28       DOPC     O22      OBL     -0.630000       15.9994           0
      3759 MEMB     28       DOPC     C22      CTL2    -0.220000       12.0110           0
      3760 MEMB     28       DOPC     H2R      HAL2     0.900000E-01   1.00800           0
      3761 MEMB     28       DOPC     H2S      HAL2     0.900000E-01   1.00800           0
      3762 MEMB     28       DOPC     C3       CTL2     0.800000E-01   12.0110           0
      3763 MEMB     28       DOPC     HX       HAL2     0.900000E-01   1.00800           0
      3764 MEMB     28       DOPC     HY       HAL2     0.900000E-01   1.00800           0
      3765 MEMB     28       DOPC     O31      OSL     -0.490000       15.9994           0
      3766 MEMB     28       DOPC     C31      CL       0.900000       12.0110           0
      3767 MEMB     28       DOPC     O32      OBL     -0.630000       15.9994           0
      3768 MEMB     28       DOPC     C32      CTL2    -0.220000       12.0110           0
      3769 MEMB     28       DOPC     H2X      HAL2     0.900000E-01   1.00800           0
      3770 MEMB     28       DOPC     H2Y      HAL2     0.900000E-01   1.00800           0
      3771 MEMB     28       DOPC     C23      CTL2    -0.180000       12.0110           0
      3772 MEMB     28       DOPC     H3R      HAL2     0.900000E-01   1.00800           0
      3773 MEMB     28       DOPC     H3S      HAL2     0.900000E-01   1.00800           0
      3774 MEMB     28       DOPC     C24      CTL2    -0.180000       12.0110           0
      3775 MEMB     28       DOPC     H4R      HAL2     0.900000E-01   1.00800           0
      3776 MEMB     28       DOPC     H4S      HAL2     0.900000E-01   1.00800           0
      3777 MEMB     28       DOPC     C25      CTL2    -0.180000       12.0110           0
      3778 MEMB     28       DOPC     H5R      HAL2     0.900000E-01   1.00800           0
      3779 MEMB     28       DOPC     H5S      HAL2     0.900000E-01   1.00800           0
      3780 MEMB     28       DOPC     C26      CTL2    -0.180000       12.0110           0
      3781 MEMB     28       DOPC     H6R      HAL2     0.900000E-01   1.00800           0
      3782 MEMB     28       DOPC     H6S      HAL2     0.900000E-01   1.00800           0
      3783 MEMB     28       DOPC     C27      CTL2    -0.180000       12.0110           0
      3784 MEMB     28       DOPC     H7R      HAL2     0.900000E-01   1.00800           0
      3785 MEMB     28       DOPC     H7S      HAL2     0.900000E-01   1.00800           0
      3786 MEMB     28       DOPC     C28      CTL2    -0.180000       12.0110           0
      3787 MEMB     28       DOPC     H8R      HAL2     0.900000E-01   1.00800           0
      3788 MEMB     28       DOPC     H8S      HAL2     0.900000E-01   1.00800           0
      3789 MEMB     28       DOPC     C29      CEL1    -0.150000       12.0110           0
      3790 MEMB     28       DOPC     H9R      HEL1     0.150000       1.00800           0
      3791 MEMB     28       DOPC     C210     CEL1    -0.150000       12.0110           0
      3792 MEMB     28       DOPC     H10R     HEL1     0.150000       1.00800           0
      3793 MEMB     28       DOPC     C211     CTL2    -0.180000       12.0110           0
      3794 MEMB     28       DOPC     H11R     HAL2     0.900000E-01   1.00800           0
      3795 MEMB     28       DOPC     H11S     HAL2     0.900000E-01   1.00800           0
      3796 MEMB     28       DOPC     C212     CTL2    -0.180000       12.0110           0
      3797 MEMB     28       DOPC     H12R     HAL2     0.900000E-01   1.00800           0
      3798 MEMB     28       DOPC     H12S     HAL2     0.900000E-01   1.00800           0
      3799 MEMB     28       DOPC     C213     CTL2    -0.180000       12.0110           0
      3800 MEMB     28       DOPC     H13R     HAL2     0.900000E-01   1.00800           0
      3801 MEMB     28       DOPC     H13S     HAL2     0.900000E-01   1.00800           0
      3802 MEMB     28       DOPC     C214     CTL2    -0.180000       12.0110           0
      3803 MEMB     28       DOPC     H14R     HAL2     0.900000E-01   1.00800           0
      3804 MEMB     28       DOPC     H14S     HAL2     0.900000E-01   1.00800           0
      3805 MEMB     28       DOPC     C215     CTL2    -0.180000       12.0110           0
      3806 MEMB     28       DOPC     H15R     HAL2     0.900000E-01   1.00800           0
      3807 MEMB     28       DOPC     H15S     HAL2     0.900000E-01   1.00800           0
      3808 MEMB     28       DOPC     C216     CTL2    -0.180000       12.0110           0
      3809 MEMB     28       DOPC     H16R     HAL2     0.900000E-01   1.00800           0
      3810 MEMB     28       DOPC     H16S     HAL2     0.900000E-01   1.00800           0
      3811 MEMB     28       DOPC     C217     CTL2    -0.180000       12.0110           0
      3812 MEMB     28       DOPC     H17R     HAL2     0.900000E-01   1.00800           0
      3813 MEMB     28       DOPC     H17S     HAL2     0.900000E-01   1.00800           0
      3814 MEMB     28       DOPC     C218     CTL3    -0.270000       12.0110           0
      3815 MEMB     28       DOPC     H18R     HAL3     0.900000E-01   1.00800           0
      3816 MEMB     28       DOPC     H18S     HAL3     0.900000E-01   1.00800           0
      3817 MEMB     28       DOPC     H18T     HAL3     0.900000E-01   1.00800           0
      3818 MEMB     28       DOPC     C33      CTL2    -0.180000       12.0110           0
      3819 MEMB     28       DOPC     H3X      HAL2     0.900000E-01   1.00800           0
      3820 MEMB     28       DOPC     H3Y      HAL2     0.900000E-01   1.00800           0
      3821 MEMB     28       DOPC     C34      CTL2    -0.180000       12.0110           0
      3822 MEMB     28       DOPC     H4X      HAL2     0.900000E-01   1.00800           0
      3823 MEMB     28       DOPC     H4Y      HAL2     0.900000E-01   1.00800           0
      3824 MEMB     28       DOPC     C35      CTL2    -0.180000       12.0110           0
      3825 MEMB     28       DOPC     H5X      HAL2     0.900000E-01   1.00800           0
      3826 MEMB     28       DOPC     H5Y      HAL2     0.900000E-01   1.00800           0
      3827 MEMB     28       DOPC     C36      CTL2    -0.180000       12.0110           0
      3828 MEMB     28       DOPC     H6X      HAL2     0.900000E-01   1.00800           0
      3829 MEMB     28       DOPC     H6Y      HAL2     0.900000E-01   1.00800           0
      3830 MEMB     28       DOPC     C37      CTL2    -0.180000       12.0110           0
      3831 MEMB     28       DOPC     H7X      HAL2     0.900000E-01   1.00800           0
      3832 MEMB     28       DOPC     H7Y      HAL2     0.900000E-01   1.00800           0
      3833 MEMB     28       DOPC     C38      CTL2    -0.180000       12.0110           0
      3834 MEMB     28       DOPC     H8X      HAL2     0.900000E-01   1.00800           0
      3835 MEMB     28       DOPC     H8Y      HAL2     0.900000E-01   1.00800           0
      3836 MEMB     28       DOPC     C39      CEL1    -0.150000       12.0110           0
      3837 MEMB     28       DOPC     H9X      HEL1     0.150000       1.00800           0
      3838 MEMB     28       DOPC     C310     CEL1    -0.150000       12.0110           0
      3839 MEMB     28       DOPC     H10X     HEL1     0.150000       1.00800           0
      3840 MEMB     28       DOPC     C311     CTL2    -0.180000       12.0110           0
      3841 MEMB     28       DOPC     H11X     HAL2     0.900000E-01   1.00800           0
      3842 MEMB     28       DOPC     H11Y     HAL2     0.900000E-01   1.00800           0
      3843 MEMB     28       DOPC     C312     CTL2    -0.180000       12.0110           0
      3844 MEMB     28       DOPC     H12X     HAL2     0.900000E-01   1.00800           0
      3845 MEMB     28       DOPC     H12Y     HAL2     0.900000E-01   1.00800           0
      3846 MEMB     28       DOPC     C313     CTL2    -0.180000       12.0110           0
      3847 MEMB     28       DOPC     H13X     HAL2     0.900000E-01   1.00800           0
      3848 MEMB     28       DOPC     H13Y     HAL2     0.900000E-01   1.00800           0
      3849 MEMB     28       DOPC     C314     CTL2    -0.180000       12.0110           0
      3850 MEMB     28       DOPC     H14X     HAL2     0.900000E-01   1.00800           0
      3851 MEMB     28       DOPC     H14Y     HAL2     0.900000E-01   1.00800           0
      3852 MEMB     28       DOPC     C315     CTL2    -0.180000       12.0110           0
      3853 MEMB     28       DOPC     H15X     HAL2     0.900000E-01   1.00800           0
      3854 MEMB     28       DOPC     H15Y     HAL2     0.900000E-01   1.00800           0
      3855 MEMB     28       DOPC     C316     CTL2    -0.180000       12.0110           0
      3856 MEMB     28       DOPC     H16X     HAL2     0.900000E-01   1.00800           0
      3857 MEMB     28       DOPC     H16Y     HAL2     0.900000E-01   1.00800           0
      3858 MEMB     28       DOPC     C317     CTL2    -0.180000       12.0110           0
      3859 MEMB     28       DOPC     H17X     HAL2     0.900000E-01   1.00800           0
      3860 MEMB     28       DOPC     H17Y     HAL2     0.900000E-01   1.00800           0
      3861 MEMB     28       DOPC     C318     CTL3    -0.270000       12.0110           0
      3862 MEMB     28       DOPC     H18X     HAL3     0.900000E-01   1.00800           0
      3863 MEMB     28       DOPC     H18Y     HAL3     0.900000E-01   1.00800           0
      3864 MEMB     28       DOPC     H18Z     HAL3     0.900000E-01   1.00800           0
      3865 MEMB     29       DOPC     N        NTL     -0.600000       14.0070           0
      3866 MEMB     29       DOPC     C12      CTL2    -0.100000       12.0110           0
      3867 MEMB     29       DOPC     H12A     HL       0.250000       1.00800           0
      3868 MEMB     29       DOPC     H12B     HL       0.250000       1.00800           0
      3869 MEMB     29       DOPC     C13      CTL5    -0.350000       12.0110           0
      3870 MEMB     29       DOPC     H13A     HL       0.250000       1.00800           0
      3871 MEMB     29       DOPC     H13B     HL       0.250000       1.00800           0
      3872 MEMB     29       DOPC     H13C     HL       0.250000       1.00800           0
      3873 MEMB     29       DOPC     C14      CTL5    -0.350000       12.0110           0
      3874 MEMB     29       DOPC     H14A     HL       0.250000       1.00800           0
      3875 MEMB     29       DOPC     H14B     HL       0.250000       1.00800           0
      3876 MEMB     29       DOPC     H14C     HL       0.250000       1.00800           0
      3877 MEMB     29       DOPC     C15      CTL5    -0.350000       12.0110           0
      3878 MEMB     29       DOPC     H15A     HL       0.250000       1.00800           0
      3879 MEMB     29       DOPC     H15B     HL       0.250000       1.00800           0
      3880 MEMB     29       DOPC     H15C     HL       0.250000       1.00800           0
      3881 MEMB     29       DOPC     C11      CTL2    -0.800000E-01   12.0110           0
      3882 MEMB     29       DOPC     H11A     HAL2     0.900000E-01   1.00800           0
      3883 MEMB     29       DOPC     H11B     HAL2     0.900000E-01   1.00800           0
      3884 MEMB     29       DOPC     P        PL        1.50000       30.9740           0
      3885 MEMB     29       DOPC     O13      O2L     -0.780000       15.9994           0
      3886 MEMB     29       DOPC     O14      O2L     -0.780000       15.9994           0
      3887 MEMB     29       DOPC     O12      OSLP    -0.570000       15.9994           0
      3888 MEMB     29       DOPC     O11      OSLP    -0.570000       15.9994           0
      3889 MEMB     29       DOPC     C1       CTL2    -0.800000E-01   12.0110           0
      3890 MEMB     29       DOPC     HA       HAL2     0.900000E-01   1.00800           0
      3891 MEMB     29       DOPC     HB       HAL2     0.900000E-01   1.00800           0
      3892 MEMB     29       DOPC     C2       CTL1     0.170000       12.0110           0
      3893 MEMB     29       DOPC     HS       HAL1     0.900000E-01   1.00800           0
      3894 MEMB     29       DOPC     O21      OSL     -0.490000       15.9994           0
      3895 MEMB     29       DOPC     C21      CL       0.900000       12.0110           0
      3896 MEMB     29       DOPC     O22      OBL     -0.630000       15.9994           0
      3897 MEMB     29       DOPC     C22      CTL2    -0.220000       12.0110           0
      3898 MEMB     29       DOPC     H2R      HAL2     0.900000E-01   1.00800           0
      3899 MEMB     29       DOPC     H2S      HAL2     0.900000E-01   1.00800           0
      3900 MEMB     29       DOPC     C3       CTL2     0.800000E-01   12.0110           0
      3901 MEMB     29       DOPC     HX       HAL2     0.900000E-01   1.00800           0
      3902 MEMB     29       DOPC     HY       HAL2     0.900000E-01   1.00800           0
      3903 MEMB     29       DOPC     O31      OSL     -0.490000       15.9994           0
      3904 MEMB     29       DOPC     C31      CL       0.900000       12.0110           0
      3905 MEMB     29       DOPC     O32      OBL     -0.630000       15.9994           0
      3906 MEMB     29       DOPC     C32      CTL2    -0.220000       12.0110           0
      3907 MEMB     29       DOPC     H2X      HAL2     0.900000E-01   1.00800           0
      3908 MEMB     29       DOPC     H2Y      HAL2     0.900000E-01   1.00800           0
      3909 MEMB     29       DOPC     C23      CTL2    -0.180000       12.0110           0
      3910 MEMB     29       DOPC     H3R      HAL2     0.900000E-01   1.00800           0
      3911 MEMB     29       DOPC     H3S      HAL2     0.900000E-01   1.00800           0
      3912 MEMB     29       DOPC     C24      CTL2    -0.180000       12.0110           0
      3913 MEMB     29       DOPC     H4R      HAL2     0.900000E-01   1.00800           0
      3914 MEMB     29       DOPC     H4S      HAL2     0.900000E-01   1.00800           0
      3915 MEMB     29       DOPC     C25      CTL2    -0.180000       12.0110           0
      3916 MEMB     29       DOPC     H5R      HAL2     0.900000E-01   1.00800           0
      3917 MEMB     29       DOPC     H5S      HAL2     0.900000E-01   1.00800           0
      3918 MEMB     29       DOPC     C26      CTL2    -0.180000       12.0110           0
      3919 MEMB     29       DOPC     H6R      HAL2     0.900000E-01   1.00800           0
      3920 MEMB     29       DOPC     H6S      HAL2     0.900000E-01   1.00800           0
      3921 MEMB     29       DOPC     C27      CTL2    -0.180000       12.0110           0
      3922 MEMB     29       DOPC     H7R      HAL2     0.900000E-01   1.00800           0
      3923 MEMB     29       DOPC     H7S      HAL2     0.900000E-01   1.00800           0
      3924 MEMB     29       DOPC     C28      CTL2    -0.180000       12.0110           0
      3925 MEMB     29       DOPC     H8R      HAL2     0.900000E-01   1.00800           0
      3926 MEMB     29       DOPC     H8S      HAL2     0.900000E-01   1.00800           0
      3927 MEMB     29       DOPC     C29      CEL1    -0.150000       12.0110           0
      3928 MEMB     29       DOPC     H9R      HEL1     0.150000       1.00800           0
      3929 MEMB     29       DOPC     C210     CEL1    -0.150000       12.0110           0
      3930 MEMB     29       DOPC     H10R     HEL1     0.150000       1.00800           0
      3931 MEMB     29       DOPC     C211     CTL2    -0.180000       12.0110           0
      3932 MEMB     29       DOPC     H11R     HAL2     0.900000E-01   1.00800           0
      3933 MEMB     29       DOPC     H11S     HAL2     0.900000E-01   1.00800           0
      3934 MEMB     29       DOPC     C212     CTL2    -0.180000       12.0110           0
      3935 MEMB     29       DOPC     H12R     HAL2     0.900000E-01   1.00800           0
      3936 MEMB     29       DOPC     H12S     HAL2     0.900000E-01   1.00800           0
      3937 MEMB     29       DOPC     C213     CTL2    -0.180000       12.0110           0
      3938 MEMB     29       DOPC     H13R     HAL2     0.900000E-01   1.00800           0
      3939 MEMB     29       DOPC     H13S     HAL2     0.900000E-01   1.00800           0
      3940 MEMB     29       DOPC     C214     CTL2    -0.180000       12.0110           0
      3941 MEMB     29       DOPC     H14R     HAL2     0.900000E-01   1.00800           0
      3942 MEMB     29       DOPC     H14S     HAL2     0.900000E-01   1.00800           0
      3943 MEMB     29       DOPC     C215     CTL2    -0.180000       12.0110           0
      3944 MEMB     29       DOPC     H15R     HAL2     0.900000E-01   1.00800           0
      3945 MEMB     29       DOPC     H15S     HAL2     0.900000E-01   1.00800           0
      3946 MEMB     29       DOPC     C216     CTL2    -0.180000       12.0110           0
      3947 MEMB     29       DOPC     H16R     HAL2     0.900000E-01   1.00800           0
      3948 MEMB     29       DOPC     H16S     HAL2     0.900000E-01   1.00800           0
      3949 MEMB     29       DOPC     C217     CTL2    -0.180000       12.0110           0
      3950 MEMB     29       DOPC     H17R     HAL2     0.900000E-01   1.00800           0
      3951 MEMB     29       DOPC     H17S     HAL2     0.900000E-01   1.00800           0
      3952 MEMB     29       DOPC     C218     CTL3    -0.270000       12.0110           0
      3953 MEMB     29       DOPC     H18R     HAL3     0.900000E-01   1.00800           0
      3954 MEMB     29       DOPC     H18S     HAL3     0.900000E-01   1.00800           0
      3955 MEMB     29       DOPC     H18T     HAL3     0.900000E-01   1.00800           0
      3956 MEMB     29       DOPC     C33      CTL2    -0.180000       12.0110           0
      3957 MEMB     29       DOPC     H3X      HAL2     0.900000E-01   1.00800           0
      3958 MEMB     29       DOPC     H3Y      HAL2     0.900000E-01   1.00800           0
      3959 MEMB     29       DOPC     C34      CTL2    -0.180000       12.0110           0
      3960 MEMB     29       DOPC     H4X      HAL2     0.900000E-01   1.00800           0
      3961 MEMB     29       DOPC     H4Y      HAL2     0.900000E-01   1.00800           0
      3962 MEMB     29       DOPC     C35      CTL2    -0.180000       12.0110           0
      3963 MEMB     29       DOPC     H5X      HAL2     0.900000E-01   1.00800           0
      3964 MEMB     29       DOPC     H5Y      HAL2     0.900000E-01   1.00800           0
      3965 MEMB     29       DOPC     C36      CTL2    -0.180000       12.0110           0
      3966 MEMB     29       DOPC     H6X      HAL2     0.900000E-01   1.00800           0
      3967 MEMB     29       DOPC     H6Y      HAL2     0.900000E-01   1.00800           0
      3968 MEMB     29       DOPC     C37      CTL2    -0.180000       12.0110           0
      3969 MEMB     29       DOPC     H7X      HAL2     0.900000E-01   1.00800           0
      3970 MEMB     29       DOPC     H7Y      HAL2     0.900000E-01   1.00800           0
      3971 MEMB     29       DOPC     C38      CTL2    -0.180000       12.0110           0
      3972 MEMB     29       DOPC     H8X      HAL2     0.900000E-01   1.00800           0
      3973 MEMB     29       DOPC     H8Y      HAL2     0.900000E-01   1.00800           0
      3974 MEMB     29       DOPC     C39      CEL1    -0.150000       12.0110           0
      3975 MEMB     29       DOPC     H9X      HEL1     0.150000       1.00800           0
      3976 MEMB     29       DOPC     C310     CEL1    -0.150000       12.0110           0
      3977 MEMB     29       DOPC     H10X     HEL1     0.150000       1.00800           0
      3978 MEMB     29       DOPC     C311     CTL2    -0.180000       12.0110           0
      3979 MEMB     29       DOPC     H11X     HAL2     0.900000E-01   1.00800           0
      3980 MEMB     29       DOPC     H11Y     HAL2     0.900000E-01   1.00800           0
      3981 MEMB     29       DOPC     C312     CTL2    -0.180000       12.0110           0
      3982 MEMB     29       DOPC     H12X     HAL2     0.900000E-01   1.00800           0
      3983 MEMB     29       DOPC     H12Y     HAL2     0.900000E-01   1.00800           0
      3984 MEMB     29       DOPC     C313     CTL2    -0.180000       12.0110           0
      3985 MEMB     29       DOPC     H13X     HAL2     0.900000E-01   1.00800           0
      3986 MEMB     29       DOPC     H13Y     HAL2     0.900000E-01   1.00800           0
      3987 MEMB     29       DOPC     C314     CTL2    -0.180000       12.0110           0
      3988 MEMB     29       DOPC     H14X     HAL2     0.900000E-01   1.00800           0
      3989 MEMB     29       DOPC     H14Y     HAL2     0.900000E-01   1.00800           0
      3990 MEMB     29       DOPC     C315     CTL2    -0.180000       12.0110           0
      3991 MEMB     29       DOPC     H15X     HAL2     0.900000E-01   1.00800           0
      3992 MEMB     29       DOPC     H15Y     HAL2     0.900000E-01   1.00800           0
      3993 MEMB     29       DOPC     C316     CTL2    -0.180000       12.0110           0
      3994 MEMB     29       DOPC     H16X     HAL2     0.900000E-01   1.00800           0
      3995 MEMB     29       DOPC     H16Y     HAL2     0.900000E-01   1.00800           0
      3996 MEMB     29       DOPC     C317     CTL2    -0.180000       12.0110           0
      3997 MEMB     29       DOPC     H17X     HAL2     0.900000E-01   1.00800           0
      3998 MEMB     29       DOPC     H17Y     HAL2     0.900000E-01   1.00800           0
      3999 MEMB     29       DOPC     C318     CTL3    -0.270000       12.0110           0
      4000 MEMB     29       DOPC     H18X     HAL3     0.900000E-01   1.00800           0
      4001 MEMB     29       DOPC     H18Y     HAL3     0.900000E-01   1.00800           0
      4002 MEMB     29       DOPC     H18Z     HAL3     0.900000E-01   1.00800           0
      4003 MEMB     30       DOPC     N        NTL     -0.600000       14.0070           0
      4004 MEMB     30       DOPC     C12      CTL2    -0.100000       12.0110           0
      4005 MEMB     30       DOPC     H12A     HL       0.250000       1.00800           0
      4006 MEMB     30       DOPC     H12B     HL       0.250000       1.00800           0
      4007 MEMB     30       DOPC     C13      CTL5    -0.350000       12.0110           0
      4008 MEMB     30       DOPC     H13A     HL       0.250000       1.00800           0
      4009 MEMB     30       DOPC     H13B     HL       0.250000       1.00800           0
      4010 MEMB     30       DOPC     H13C     HL       0.250000       1.00800           0
      4011 MEMB     30       DOPC     C14      CTL5    -0.350000       12.0110           0
      4012 MEMB     30       DOPC     H14A     HL       0.250000       1.00800           0
      4013 MEMB     30       DOPC     H14B     HL       0.250000       1.00800           0
      4014 MEMB     30       DOPC     H14C     HL       0.250000       1.00800           0
      4015 MEMB     30       DOPC     C15      CTL5    -0.350000       12.0110           0
      4016 MEMB     30       DOPC     H15A     HL       0.250000       1.00800           0
      4017 MEMB     30       DOPC     H15B     HL       0.250000       1.00800           0
      4018 MEMB     30       DOPC     H15C     HL       0.250000       1.00800           0
      4019 MEMB     30       DOPC     C11      CTL2    -0.800000E-01   12.0110           0
      4020 MEMB     30       DOPC     H11A     HAL2     0.900000E-01   1.00800           0
      4021 MEMB     30       DOPC     H11B     HAL2     0.900000E-01   1.00800           0
      4022 MEMB     30       DOPC     P        PL        1.50000       30.9740           0
      4023 MEMB     30       DOPC     O13      O2L     -0.780000       15.9994           0
      4024 MEMB     30       DOPC     O14      O2L     -0.780000       15.9994           0
      4025 MEMB     30       DOPC     O12      OSLP    -0.570000       15.9994           0
      4026 MEMB     30       DOPC     O11      OSLP    -0.570000       15.9994           0
      4027 MEMB     30       DOPC     C1       CTL2    -0.800000E-01   12.0110           0
      4028 MEMB     30       DOPC     HA       HAL2     0.900000E-01   1.00800           0
      4029 MEMB     30       DOPC     HB       HAL2     0.900000E-01   1.00800           0
      4030 MEMB     30       DOPC     C2       CTL1     0.170000       12.0110           0
      4031 MEMB     30       DOPC     HS       HAL1     0.900000E-01   1.00800           0
      4032 MEMB     30       DOPC     O21      OSL     -0.490000       15.9994           0
      4033 MEMB     30       DOPC     C21      CL       0.900000       12.0110           0
      4034 MEMB     30       DOPC     O22      OBL     -0.630000       15.9994           0
      4035 MEMB     30       DOPC     C22      CTL2    -0.220000       12.0110           0
      4036 MEMB     30       DOPC     H2R      HAL2     0.900000E-01   1.00800           0
      4037 MEMB     30       DOPC     H2S      HAL2     0.900000E-01   1.00800           0
      4038 MEMB     30       DOPC     C3       CTL2     0.800000E-01   12.0110           0
      4039 MEMB     30       DOPC     HX       HAL2     0.900000E-01   1.00800           0
      4040 MEMB     30       DOPC     HY       HAL2     0.900000E-01   1.00800           0
      4041 MEMB     30       DOPC     O31      OSL     -0.490000       15.9994           0
      4042 MEMB     30       DOPC     C31      CL       0.900000       12.0110           0
      4043 MEMB     30       DOPC     O32      OBL     -0.630000       15.9994           0
      4044 MEMB     30       DOPC     C32      CTL2    -0.220000       12.0110           0
      4045 MEMB     30       DOPC     H2X      HAL2     0.900000E-01   1.00800           0
      4046 MEMB     30       DOPC     H2Y      HAL2     0.900000E-01   1.00800           0
      4047 MEMB     30       DOPC     C23      CTL2    -0.180000       12.0110           0
      4048 MEMB     30       DOPC     H3R      HAL2     0.900000E-01   1.00800           0
      4049 MEMB     30       DOPC     H3S      HAL2     0.900000E-01   1.00800           0
      4050 MEMB     30       DOPC     C24      CTL2    -0.180000       12.0110           0
      4051 MEMB     30       DOPC     H4R      HAL2     0.900000E-01   1.00800           0
      4052 MEMB     30       DOPC     H4S      HAL2     0.900000E-01   1.00800           0
      4053 MEMB     30       DOPC     C25      CTL2    -0.180000       12.0110           0
      4054 MEMB     30       DOPC     H5R      HAL2     0.900000E-01   1.00800           0
      4055 MEMB     30       DOPC     H5S      HAL2     0.900000E-01   1.00800           0
      4056 MEMB     30       DOPC     C26      CTL2    -0.180000       12.0110           0
      4057 MEMB     30       DOPC     H6R      HAL2     0.900000E-01   1.00800           0
      4058 MEMB     30       DOPC     H6S      HAL2     0.900000E-01   1.00800           0
      4059 MEMB     30       DOPC     C27      CTL2    -0.180000       12.0110           0
      4060 MEMB     30       DOPC     H7R      HAL2     0.900000E-01   1.00800           0
      4061 MEMB     30       DOPC     H7S      HAL2     0.900000E-01   1.00800           0
      4062 MEMB     30       DOPC     C28      CTL2    -0.180000       12.0110           0
      4063 MEMB     30       DOPC     H8R      HAL2     0.900000E-01   1.00800           0
      4064 MEMB     30       DOPC     H8S      HAL2     0.900000E-01   1.00800           0
      4065 MEMB     30       DOPC     C29      CEL1    -0.150000       12.0110           0
      4066 MEMB     30       DOPC     H9R      HEL1     0.150000       1.00800           0
      4067 MEMB     30       DOPC     C210     CEL1    -0.150000       12.0110           0
      4068 MEMB     30       DOPC     H10R     HEL1     0.150000       1.00800           0
      4069 MEMB     30       DOPC     C211     CTL2    -0.180000       12.0110           0
      4070 MEMB     30       DOPC     H11R     HAL2     0.900000E-01   1.00800           0
      4071 MEMB     30       DOPC     H11S     HAL2     0.900000E-01   1.00800           0
      4072 MEMB     30       DOPC     C212     CTL2    -0.180000       12.0110           0
      4073 MEMB     30       DOPC     H12R     HAL2     0.900000E-01   1.00800           0
      4074 MEMB     30       DOPC     H12S     HAL2     0.900000E-01   1.00800           0
      4075 MEMB     30       DOPC     C213     CTL2    -0.180000       12.0110           0
      4076 MEMB     30       DOPC     H13R     HAL2     0.900000E-01   1.00800           0
      4077 MEMB     30       DOPC     H13S     HAL2     0.900000E-01   1.00800           0
      4078 MEMB     30       DOPC     C214     CTL2    -0.180000       12.0110           0
      4079 MEMB     30       DOPC     H14R     HAL2     0.900000E-01   1.00800           0
      4080 MEMB     30       DOPC     H14S     HAL2     0.900000E-01   1.00800           0
      4081 MEMB     30       DOPC     C215     CTL2    -0.180000       12.0110           0
      4082 MEMB     30       DOPC     H15R     HAL2     0.900000E-01   1.00800           0
      4083 MEMB     30       DOPC     H15S     HAL2     0.900000E-01   1.00800           0
      4084 MEMB     30       DOPC     C216     CTL2    -0.180000       12.0110           0
      4085 MEMB     30       DOPC     H16R     HAL2     0.900000E-01   1.00800           0
      4086 MEMB     30       DOPC     H16S     HAL2     0.900000E-01   1.00800           0
      4087 MEMB     30       DOPC     C217     CTL2    -0.180000       12.0110           0
      4088 MEMB     30       DOPC     H17R     HAL2     0.900000E-01   1.00800           0
      4089 MEMB     30       DOPC     H17S     HAL2     0.900000E-01   1.00800           0
      4090 MEMB     30       DOPC     C218     CTL3    -0.270000       12.0110           0
      4091 MEMB     30       DOPC     H18R     HAL3     0.900000E-01   1.00800           0
      4092 MEMB     30       DOPC     H18S     HAL3     0.900000E-01   1.00800           0
      4093 MEMB     30       DOPC     H18T     HAL3     0.900000E-01   1.00800           0
      4094 MEMB     30       DOPC     C33      CTL2    -0.180000       12.0110           0
      4095 MEMB     30       DOPC     H3X      HAL2     0.900000E-01   1.00800           0
      4096 MEMB     30       DOPC     H3Y      HAL2     0.900000E-01   1.00800           0
      4097 MEMB     30       DOPC     C34      CTL2    -0.180000       12.0110           0
      4098 MEMB     30       DOPC     H4X      HAL2     0.900000E-01   1.00800           0
      4099 MEMB     30       DOPC     H4Y      HAL2     0.900000E-01   1.00800           0
      4100 MEMB     30       DOPC     C35      CTL2    -0.180000       12.0110           0
      4101 MEMB     30       DOPC     H5X      HAL2     0.900000E-01   1.00800           0
      4102 MEMB     30       DOPC     H5Y      HAL2     0.900000E-01   1.00800           0
      4103 MEMB     30       DOPC     C36      CTL2    -0.180000       12.0110           0
      4104 MEMB     30       DOPC     H6X      HAL2     0.900000E-01   1.00800           0
      4105 MEMB     30       DOPC     H6Y      HAL2     0.900000E-01   1.00800           0
      4106 MEMB     30       DOPC     C37      CTL2    -0.180000       12.0110           0
      4107 MEMB     30       DOPC     H7X      HAL2     0.900000E-01   1.00800           0
      4108 MEMB     30       DOPC     H7Y      HAL2     0.900000E-01   1.00800           0
      4109 MEMB     30       DOPC     C38      CTL2    -0.180000       12.0110           0
      4110 MEMB     30       DOPC     H8X      HAL2     0.900000E-01   1.00800           0
      4111 MEMB     30       DOPC     H8Y      HAL2     0.900000E-01   1.00800           0
      4112 MEMB     30       DOPC     C39      CEL1    -0.150000       12.0110           0
      4113 MEMB     30       DOPC     H9X      HEL1     0.150000       1.00800           0
      4114 MEMB     30       DOPC     C310     CEL1    -0.150000       12.0110           0
      4115 MEMB     30       DOPC     H10X     HEL1     0.150000       1.00800           0
      4116 MEMB     30       DOPC     C311     CTL2    -0.180000       12.0110           0
      4117 MEMB     30       DOPC     H11X     HAL2     0.900000E-01   1.00800           0
      4118 MEMB     30       DOPC     H11Y     HAL2     0.900000E-01   1.00800           0
      4119 MEMB     30       DOPC     C312     CTL2    -0.180000       12.0110           0
      4120 MEMB     30       DOPC     H12X     HAL2     0.900000E-01   1.00800           0
      4121 MEMB     30       DOPC     H12Y     HAL2     0.900000E-01   1.00800           0
      4122 MEMB     30       DOPC     C313     CTL2    -0.180000       12.0110           0
      4123 MEMB     30       DOPC     H13X     HAL2     0.900000E-01   1.00800           0
      4124 MEMB     30       DOPC     H13Y     HAL2     0.900000E-01   1.00800           0
      4125 MEMB     30       DOPC     C314     CTL2    -0.180000       12.0110           0
      4126 MEMB     30       DOPC     H14X     HAL2     0.900000E-01   1.00800           0
      4127 MEMB     30       DOPC     H14Y     HAL2     0.900000E-01   1.00800           0
      4128 MEMB     30       DOPC     C315     CTL2    -0.180000       12.0110           0
      4129 MEMB     30       DOPC     H15X     HAL2     0.900000E-01   1.00800           0
      4130 MEMB     30       DOPC     H15Y     HAL2     0.900000E-01   1.00800           0
      4131 MEMB     30       DOPC     C316     CTL2    -0.180000       12.0110           0
      4132 MEMB     30       DOPC     H16X     HAL2     0.900000E-01   1.00800           0
      4133 MEMB     30       DOPC     H16Y     HAL2     0.900000E-01   1.00800           0
      4134 MEMB     30       DOPC     C317     CTL2    -0.180000       12.0110           0
      4135 MEMB     30       DOPC     H17X     HAL2     0.900000E-01   1.00800           0
      4136 MEMB     30       DOPC     H17Y     HAL2     0.900000E-01   1.00800           0
      4137 MEMB     30       DOPC     C318     CTL3    -0.270000       12.0110           0
      4138 MEMB     30       DOPC     H18X     HAL3     0.900000E-01   1.00800           0
      4139 MEMB     30       DOPC     H18Y     HAL3     0.900000E-01   1.00800           0
      4140 MEMB     30       DOPC     H18Z     HAL3     0.900000E-01   1.00800           0
      4141 MEMB     31       DOPC     N        NTL     -0.600000       14.0070           0
      4142 MEMB     31       DOPC     C12      CTL2    -0.100000       12.0110           0
      4143 MEMB     31       DOPC     H12A     HL       0.250000       1.00800           0
      4144 MEMB     31       DOPC     H12B     HL       0.250000       1.00800           0
      4145 MEMB     31       DOPC     C13      CTL5    -0.350000       12.0110           0
      4146 MEMB     31       DOPC     H13A     HL       0.250000       1.00800           0
      4147 MEMB     31       DOPC     H13B     HL       0.250000       1.00800           0
      4148 MEMB     31       DOPC     H13C     HL       0.250000       1.00800           0
      4149 MEMB     31       DOPC     C14      CTL5    -0.350000       12.0110           0
      4150 MEMB     31       DOPC     H14A     HL       0.250000       1.00800           0
      4151 MEMB     31       DOPC     H14B     HL       0.250000       1.00800           0
      4152 MEMB     31       DOPC     H14C     HL       0.250000       1.00800           0
      4153 MEMB     31       DOPC     C15      CTL5    -0.350000       12.0110           0
      4154 MEMB     31       DOPC     H15A     HL       0.250000       1.00800           0
      4155 MEMB     31       DOPC     H15B     HL       0.250000       1.00800           0
      4156 MEMB     31       DOPC     H15C     HL       0.250000       1.00800           0
      4157 MEMB     31       DOPC     C11      CTL2    -0.800000E-01   12.0110           0
      4158 MEMB     31       DOPC     H11A     HAL2     0.900000E-01   1.00800           0
      4159 MEMB     31       DOPC     H11B     HAL2     0.900000E-01   1.00800           0
      4160 MEMB     31       DOPC     P        PL        1.50000       30.9740           0
      4161 MEMB     31       DOPC     O13      O2L     -0.780000       15.9994           0
      4162 MEMB     31       DOPC     O14      O2L     -0.780000       15.9994           0
      4163 MEMB     31       DOPC     O12      OSLP    -0.570000       15.9994           0
      4164 MEMB     31       DOPC     O11      OSLP    -0.570000       15.9994           0
      4165 MEMB     31       DOPC     C1       CTL2    -0.800000E-01   12.0110           0
      4166 MEMB     31       DOPC     HA       HAL2     0.900000E-01   1.00800           0
      4167 MEMB     31       DOPC     HB       HAL2     0.900000E-01   1.00800           0
      4168 MEMB     31       DOPC     C2       CTL1     0.170000       12.0110           0
      4169 MEMB     31       DOPC     HS       HAL1     0.900000E-01   1.00800           0
      4170 MEMB     31       DOPC     O21      OSL     -0.490000       15.9994           0
      4171 MEMB     31       DOPC     C21      CL       0.900000       12.0110           0
      4172 MEMB     31       DOPC     O22      OBL     -0.630000       15.9994           0
      4173 MEMB     31       DOPC     C22      CTL2    -0.220000       12.0110           0
      4174 MEMB     31       DOPC     H2R      HAL2     0.900000E-01   1.00800           0
      4175 MEMB     31       DOPC     H2S      HAL2     0.900000E-01   1.00800           0
      4176 MEMB     31       DOPC     C3       CTL2     0.800000E-01   12.0110           0
      4177 MEMB     31       DOPC     HX       HAL2     0.900000E-01   1.00800           0
      4178 MEMB     31       DOPC     HY       HAL2     0.900000E-01   1.00800           0
      4179 MEMB     31       DOPC     O31      OSL     -0.490000       15.9994           0
      4180 MEMB     31       DOPC     C31      CL       0.900000       12.0110           0
      4181 MEMB     31       DOPC     O32      OBL     -0.630000       15.9994           0
      4182 MEMB     31       DOPC     C32      CTL2    -0.220000       12.0110           0
      4183 MEMB     31       DOPC     H2X      HAL2     0.900000E-01   1.00800           0
      4184 MEMB     31       DOPC     H2Y      HAL2     0.900000E-01   1.00800           0
      4185 MEMB     31       DOPC     C23      CTL2    -0.180000       12.0110           0
      4186 MEMB     31       DOPC     H3R      HAL2     0.900000E-01   1.00800           0
      4187 MEMB     31       DOPC     H3S      HAL2     0.900000E-01   1.00800           0
      4188 MEMB     31       DOPC     C24      CTL2    -0.180000       12.0110           0
      4189 MEMB     31       DOPC     H4R      HAL2     0.900000E-01   1.00800           0
      4190 MEMB     31       DOPC     H4S      HAL2     0.900000E-01   1.00800           0
      4191 MEMB     31       DOPC     C25      CTL2    -0.180000       12.0110           0
      4192 MEMB     31       DOPC     H5R      HAL2     0.900000E-01   1.00800           0
      4193 MEMB     31       DOPC     H5S      HAL2     0.900000E-01   1.00800           0
      4194 MEMB     31       DOPC     C26      CTL2    -0.180000       12.0110           0
      4195 MEMB     31       DOPC     H6R      HAL2     0.900000E-01   1.00800           0
      4196 MEMB     31       DOPC     H6S      HAL2     0.900000E-01   1.00800           0
      4197 MEMB     31       DOPC     C27      CTL2    -0.180000       12.0110           0
      4198 MEMB     31       DOPC     H7R      HAL2     0.900000E-01   1.00800           0
      4199 MEMB     31       DOPC     H7S      HAL2     0.900000E-01   1.00800           0
      4200 MEMB     31       DOPC     C28      CTL2    -0.180000       12.0110           0
      4201 MEMB     31       DOPC     H8R      HAL2     0.900000E-01   1.00800           0
      4202 MEMB     31       DOPC     H8S      HAL2     0.900000E-01   1.00800           0
      4203 MEMB     31       DOPC     C29      CEL1    -0.150000       12.0110           0
      4204 MEMB     31       DOPC     H9R      HEL1     0.150000       1.00800           0
      4205 MEMB     31       DOPC     C210     CEL1    -0.150000       12.0110           0
      4206 MEMB     31       DOPC     H10R     HEL1     0.150000       1.00800           0
      4207 MEMB     31       DOPC     C211     CTL2    -0.180000       12.0110           0
      4208 MEMB     31       DOPC     H11R     HAL2     0.900000E-01   1.00800           0
      4209 MEMB     31       DOPC     H11S     HAL2     0.900000E-01   1.00800           0
      4210 MEMB     31       DOPC     C212     CTL2    -0.180000       12.0110           0
      4211 MEMB     31       DOPC     H12R     HAL2     0.900000E-01   1.00800           0
      4212 MEMB     31       DOPC     H12S     HAL2     0.900000E-01   1.00800           0
      4213 MEMB     31       DOPC     C213     CTL2    -0.180000       12.0110           0
      4214 MEMB     31       DOPC     H13R     HAL2     0.900000E-01   1.00800           0
      4215 MEMB     31       DOPC     H13S     HAL2     0.900000E-01   1.00800           0
      4216 MEMB     31       DOPC     C214     CTL2    -0.180000       12.0110           0
      4217 MEMB     31       DOPC     H14R     HAL2     0.900000E-01   1.00800           0
      4218 MEMB     31       DOPC     H14S     HAL2     0.900000E-01   1.00800           0
      4219 MEMB     31       DOPC     C215     CTL2    -0.180000       12.0110           0
      4220 MEMB     31       DOPC     H15R     HAL2     0.900000E-01   1.00800           0
      4221 MEMB     31       DOPC     H15S     HAL2     0.900000E-01   1.00800           0
      4222 MEMB     31       DOPC     C216     CTL2    -0.180000       12.0110           0
      4223 MEMB     31       DOPC     H16R     HAL2     0.900000E-01   1.00800           0
      4224 MEMB     31       DOPC     H16S     HAL2     0.900000E-01   1.00800           0
      4225 MEMB     31       DOPC     C217     CTL2    -0.180000       12.0110           0
      4226 MEMB     31       DOPC     H17R     HAL2     0.900000E-01   1.00800           0
      4227 MEMB     31       DOPC     H17S     HAL2     0.900000E-01   1.00800           0
      4228 MEMB     31       DOPC     C218     CTL3    -0.270000       12.0110           0
      4229 MEMB     31       DOPC     H18R     HAL3     0.900000E-01   1.00800           0
      4230 MEMB     31       DOPC     H18S     HAL3     0.900000E-01   1.00800           0
      4231 MEMB     31       DOPC     H18T     HAL3     0.900000E-01   1.00800           0
      4232 MEMB     31       DOPC     C33      CTL2    -0.180000       12.0110           0
      4233 MEMB     31       DOPC     H3X      HAL2     0.900000E-01   1.00800           0
      4234 MEMB     31       DOPC     H3Y      HAL2     0.900000E-01   1.00800           0
      4235 MEMB     31       DOPC     C34      CTL2    -0.180000       12.0110           0
      4236 MEMB     31       DOPC     H4X      HAL2     0.900000E-01   1.00800           0
      4237 MEMB     31       DOPC     H4Y      HAL2     0.900000E-01   1.00800           0
      4238 MEMB     31       DOPC     C35      CTL2    -0.180000       12.0110           0
      4239 MEMB     31       DOPC     H5X      HAL2     0.900000E-01   1.00800           0
      4240 MEMB     31       DOPC     H5Y      HAL2     0.900000E-01   1.00800           0
      4241 MEMB     31       DOPC     C36      CTL2    -0.180000       12.0110           0
      4242 MEMB     31       DOPC     H6X      HAL2     0.900000E-01   1.00800           0
      4243 MEMB     31       DOPC     H6Y      HAL2     0.900000E-01   1.00800           0
      4244 MEMB     31       DOPC     C37      CTL2    -0.180000       12.0110           0
      4245 MEMB     31       DOPC     H7X      HAL2     0.900000E-01   1.00800           0
      4246 MEMB     31       DOPC     H7Y      HAL2     0.900000E-01   1.00800           0
      4247 MEMB     31       DOPC     C38      CTL2    -0.180000       12.0110           0
      4248 MEMB     31       DOPC     H8X      HAL2     0.900000E-01   1.00800           0
      4249 MEMB     31       DOPC     H8Y      HAL2     0.900000E-01   1.00800           0
      4250 MEMB     31       DOPC     C39      CEL1    -0.150000       12.0110           0
      4251 MEMB     31       DOPC     H9X      HEL1     0.150000       1.00800           0
      4252 MEMB     31       DOPC     C310     CEL1    -0.150000       12.0110           0
      4253 MEMB     31       DOPC     H10X     HEL1     0.150000       1.00800           0
      4254 MEMB     31       DOPC     C311     CTL2    -0.180000       12.0110           0
      4255 MEMB     31       DOPC     H11X     HAL2     0.900000E-01   1.00800           0
      4256 MEMB     31       DOPC     H11Y     HAL2     0.900000E-01   1.00800           0
      4257 MEMB     31       DOPC     C312     CTL2    -0.180000       12.0110           0
      4258 MEMB     31       DOPC     H12X     HAL2     0.900000E-01   1.00800           0
      4259 MEMB     31       DOPC     H12Y     HAL2     0.900000E-01   1.00800           0
      4260 MEMB     31       DOPC     C313     CTL2    -0.180000       12.0110           0
      4261 MEMB     31       DOPC     H13X     HAL2     0.900000E-01   1.00800           0
      4262 MEMB     31       DOPC     H13Y     HAL2     0.900000E-01   1.00800           0
      4263 MEMB     31       DOPC     C314     CTL2    -0.180000       12.0110           0
      4264 MEMB     31       DOPC     H14X     HAL2     0.900000E-01   1.00800           0
      4265 MEMB     31       DOPC     H14Y     HAL2     0.900000E-01   1.00800           0
      4266 MEMB     31       DOPC     C315     CTL2    -0.180000       12.0110           0
      4267 MEMB     31       DOPC     H15X     HAL2     0.900000E-01   1.00800           0
      4268 MEMB     31       DOPC     H15Y     HAL2     0.900000E-01   1.00800           0
      4269 MEMB     31       DOPC     C316     CTL2    -0.180000       12.0110           0
      4270 MEMB     31       DOPC     H16X     HAL2     0.900000E-01   1.00800           0
      4271 MEMB     31       DOPC     H16Y     HAL2     0.900000E-01   1.00800           0
      4272 MEMB     31       DOPC     C317     CTL2    -0.180000       12.0110           0
      4273 MEMB     31       DOPC     H17X     HAL2     0.900000E-01   1.00800           0
      4274 MEMB     31       DOPC     H17Y     HAL2     0.900000E-01   1.00800           0
      4275 MEMB     31       DOPC     C318     CTL3    -0.270000       12.0110           0
      4276 MEMB     31       DOPC     H18X     HAL3     0.900000E-01   1.00800           0
      4277 MEMB     31       DOPC     H18Y     HAL3     0.900000E-01   1.00800           0
      4278 MEMB     31       DOPC     H18Z     HAL3     0.900000E-01   1.00800           0
      4279 MEMB     32       DOPC     N        NTL     -0.600000       14.0070           0
      4280 MEMB     32       DOPC     C12      CTL2    -0.100000       12.0110           0
      4281 MEMB     32       DOPC     H12A     HL       0.250000       1.00800           0
      4282 MEMB     32       DOPC     H12B     HL       0.250000       1.00800           0
      4283 MEMB     32       DOPC     C13      CTL5    -0.350000       12.0110           0
      4284 MEMB     32       DOPC     H13A     HL       0.250000       1.00800           0
      4285 MEMB     32       DOPC     H13B     HL       0.250000       1.00800           0
      4286 MEMB     32       DOPC     H13C     HL       0.250000       1.00800           0
      4287 MEMB     32       DOPC     C14      CTL5    -0.350000       12.0110           0
      4288 MEMB     32       DOPC     H14A     HL       0.250000       1.00800           0
      4289 MEMB     32       DOPC     H14B     HL       0.250000       1.00800           0
      4290 MEMB     32       DOPC     H14C     HL       0.250000       1.00800           0
      4291 MEMB     32       DOPC     C15      CTL5    -0.350000       12.0110           0
      4292 MEMB     32       DOPC     H15A     HL       0.250000       1.00800           0
      4293 MEMB     32       DOPC     H15B     HL       0.250000       1.00800           0
      4294 MEMB     32       DOPC     H15C     HL       0.250000       1.00800           0
      4295 MEMB     32       DOPC     C11      CTL2    -0.800000E-01   12.0110           0
      4296 MEMB     32       DOPC     H11A     HAL2     0.900000E-01   1.00800           0
      4297 MEMB     32       DOPC     H11B     HAL2     0.900000E-01   1.00800           0
      4298 MEMB     32       DOPC     P        PL        1.50000       30.9740           0
      4299 MEMB     32       DOPC     O13      O2L     -0.780000       15.9994           0
      4300 MEMB     32       DOPC     O14      O2L     -0.780000       15.9994           0
      4301 MEMB     32       DOPC     O12      OSLP    -0.570000       15.9994           0
      4302 MEMB     32       DOPC     O11      OSLP    -0.570000       15.9994           0
      4303 MEMB     32       DOPC     C1       CTL2    -0.800000E-01   12.0110           0
      4304 MEMB     32       DOPC     HA       HAL2     0.900000E-01   1.00800           0
      4305 MEMB     32       DOPC     HB       HAL2     0.900000E-01   1.00800           0
      4306 MEMB     32       DOPC     C2       CTL1     0.170000       12.0110           0
      4307 MEMB     32       DOPC     HS       HAL1     0.900000E-01   1.00800           0
      4308 MEMB     32       DOPC     O21      OSL     -0.490000       15.9994           0
      4309 MEMB     32       DOPC     C21      CL       0.900000       12.0110           0
      4310 MEMB     32       DOPC     O22      OBL     -0.630000       15.9994           0
      4311 MEMB     32       DOPC     C22      CTL2    -0.220000       12.0110           0
      4312 MEMB     32       DOPC     H2R      HAL2     0.900000E-01   1.00800           0
      4313 MEMB     32       DOPC     H2S      HAL2     0.900000E-01   1.00800           0
      4314 MEMB     32       DOPC     C3       CTL2     0.800000E-01   12.0110           0
      4315 MEMB     32       DOPC     HX       HAL2     0.900000E-01   1.00800           0
      4316 MEMB     32       DOPC     HY       HAL2     0.900000E-01   1.00800           0
      4317 MEMB     32       DOPC     O31      OSL     -0.490000       15.9994           0
      4318 MEMB     32       DOPC     C31      CL       0.900000       12.0110           0
      4319 MEMB     32       DOPC     O32      OBL     -0.630000       15.9994           0
      4320 MEMB     32       DOPC     C32      CTL2    -0.220000       12.0110           0
      4321 MEMB     32       DOPC     H2X      HAL2     0.900000E-01   1.00800           0
      4322 MEMB     32       DOPC     H2Y      HAL2     0.900000E-01   1.00800           0
      4323 MEMB     32       DOPC     C23      CTL2    -0.180000       12.0110           0
      4324 MEMB     32       DOPC     H3R      HAL2     0.900000E-01   1.00800           0
      4325 MEMB     32       DOPC     H3S      HAL2     0.900000E-01   1.00800           0
      4326 MEMB     32       DOPC     C24      CTL2    -0.180000       12.0110           0
      4327 MEMB     32       DOPC     H4R      HAL2     0.900000E-01   1.00800           0
      4328 MEMB     32       DOPC     H4S      HAL2     0.900000E-01   1.00800           0
      4329 MEMB     32       DOPC     C25      CTL2    -0.180000       12.0110           0
      4330 MEMB     32       DOPC     H5R      HAL2     0.900000E-01   1.00800           0
      4331 MEMB     32       DOPC     H5S      HAL2     0.900000E-01   1.00800           0
      4332 MEMB     32       DOPC     C26      CTL2    -0.180000       12.0110           0
      4333 MEMB     32       DOPC     H6R      HAL2     0.900000E-01   1.00800           0
      4334 MEMB     32       DOPC     H6S      HAL2     0.900000E-01   1.00800           0
      4335 MEMB     32       DOPC     C27      CTL2    -0.180000       12.0110           0
      4336 MEMB     32       DOPC     H7R      HAL2     0.900000E-01   1.00800           0
      4337 MEMB     32       DOPC     H7S      HAL2     0.900000E-01   1.00800           0
      4338 MEMB     32       DOPC     C28      CTL2    -0.180000       12.0110           0
      4339 MEMB     32       DOPC     H8R      HAL2     0.900000E-01   1.00800           0
      4340 MEMB     32       DOPC     H8S      HAL2     0.900000E-01   1.00800           0
      4341 MEMB     32       DOPC     C29      CEL1    -0.150000       12.0110           0
      4342 MEMB     32       DOPC     H9R      HEL1     0.150000       1.00800           0
      4343 MEMB     32       DOPC     C210     CEL1    -0.150000       12.0110           0
      4344 MEMB     32       DOPC     H10R     HEL1     0.150000       1.00800           0
      4345 MEMB     32       DOPC     C211     CTL2    -0.180000       12.0110           0
      4346 MEMB     32       DOPC     H11R     HAL2     0.900000E-01   1.00800           0
      4347 MEMB     32       DOPC     H11S     HAL2     0.900000E-01   1.00800           0
      4348 MEMB     32       DOPC     C212     CTL2    -0.180000       12.0110           0
      4349 MEMB     32       DOPC     H12R     HAL2     0.900000E-01   1.00800           0
      4350 MEMB     32       DOPC     H12S     HAL2     0.900000E-01   1.00800           0
      4351 MEMB     32       DOPC     C213     CTL2    -0.180000       12.0110           0
      4352 MEMB     32       DOPC     H13R     HAL2     0.900000E-01   1.00800           0
      4353 MEMB     32       DOPC     H13S     HAL2     0.900000E-01   1.00800           0
      4354 MEMB     32       DOPC     C214     CTL2    -0.180000       12.0110           0
      4355 MEMB     32       DOPC     H14R     HAL2     0.900000E-01   1.00800           0
      4356 MEMB     32       DOPC     H14S     HAL2     0.900000E-01   1.00800           0
      4357 MEMB     32       DOPC     C215     CTL2    -0.180000       12.0110           0
      4358 MEMB     32       DOPC     H15R     HAL2     0.900000E-01   1.00800           0
      4359 MEMB     32       DOPC     H15S     HAL2     0.900000E-01   1.00800           0
      4360 MEMB     32       DOPC     C216     CTL2    -0.180000       12.0110           0
      4361 MEMB     32       DOPC     H16R     HAL2     0.900000E-01   1.00800           0
      4362 MEMB     32       DOPC     H16S     HAL2     0.900000E-01   1.00800           0
      4363 MEMB     32       DOPC     C217     CTL2    -0.180000       12.0110           0
      4364 MEMB     32       DOPC     H17R     HAL2     0.900000E-01   1.00800           0
      4365 MEMB     32       DOPC     H17S     HAL2     0.900000E-01   1.00800           0
      4366 MEMB     32       DOPC     C218     CTL3    -0.270000       12.0110           0
      4367 MEMB     32       DOPC     H18R     HAL3     0.900000E-01   1.00800           0
      4368 MEMB     32       DOPC     H18S     HAL3     0.900000E-01   1.00800           0
      4369 MEMB     32       DOPC     H18T     HAL3     0.900000E-01   1.00800           0
      4370 MEMB     32       DOPC     C33      CTL2    -0.180000       12.0110           0
      4371 MEMB     32       DOPC     H3X      HAL2     0.900000E-01   1.00800           0
      4372 MEMB     32       DOPC     H3Y      HAL2     0.900000E-01   1.00800           0
      4373 MEMB     32       DOPC     C34      CTL2    -0.180000       12.0110           0
      4374 MEMB     32       DOPC     H4X      HAL2     0.900000E-01   1.00800           0
      4375 MEMB     32       DOPC     H4Y      HAL2     0.900000E-01   1.00800           0
      4376 MEMB     32       DOPC     C35      CTL2    -0.180000       12.0110           0
      4377 MEMB     32       DOPC     H5X      HAL2     0.900000E-01   1.00800           0
      4378 MEMB     32       DOPC     H5Y      HAL2     0.900000E-01   1.00800           0
      4379 MEMB     32       DOPC     C36      CTL2    -0.180000       12.0110           0
      4380 MEMB     32       DOPC     H6X      HAL2     0.900000E-01   1.00800           0
      4381 MEMB     32       DOPC     H6Y      HAL2     0.900000E-01   1.00800           0
      4382 MEMB     32       DOPC     C37      CTL2    -0.180000       12.0110           0
      4383 MEMB     32       DOPC     H7X      HAL2     0.900000E-01   1.00800           0
      4384 MEMB     32       DOPC     H7Y      HAL2     0.900000E-01   1.00800           0
      4385 MEMB     32       DOPC     C38      CTL2    -0.180000       12.0110           0
      4386 MEMB     32       DOPC     H8X      HAL2     0.900000E-01   1.00800           0
      4387 MEMB     32       DOPC     H8Y      HAL2     0.900000E-01   1.00800           0
      4388 MEMB     32       DOPC     C39      CEL1    -0.150000       12.0110           0
      4389 MEMB     32       DOPC     H9X      HEL1     0.150000       1.00800           0
      4390 MEMB     32       DOPC     C310     CEL1    -0.150000       12.0110           0
      4391 MEMB     32       DOPC     H10X     HEL1     0.150000       1.00800           0
      4392 MEMB     32       DOPC     C311     CTL2    -0.180000       12.0110           0
      4393 MEMB     32       DOPC     H11X     HAL2     0.900000E-01   1.00800           0
      4394 MEMB     32       DOPC     H11Y     HAL2     0.900000E-01   1.00800           0
      4395 MEMB     32       DOPC     C312     CTL2    -0.180000       12.0110           0
      4396 MEMB     32       DOPC     H12X     HAL2     0.900000E-01   1.00800           0
      4397 MEMB     32       DOPC     H12Y     HAL2     0.900000E-01   1.00800           0
      4398 MEMB     32       DOPC     C313     CTL2    -0.180000       12.0110           0
      4399 MEMB     32       DOPC     H13X     HAL2     0.900000E-01   1.00800           0
      4400 MEMB     32       DOPC     H13Y     HAL2     0.900000E-01   1.00800           0
      4401 MEMB     32       DOPC     C314     CTL2    -0.180000       12.0110           0
      4402 MEMB     32       DOPC     H14X     HAL2     0.900000E-01   1.00800           0
      4403 MEMB     32       DOPC     H14Y     HAL2     0.900000E-01   1.00800           0
      4404 MEMB     32       DOPC     C315     CTL2    -0.180000       12.0110           0
      4405 MEMB     32       DOPC     H15X     HAL2     0.900000E-01   1.00800           0
      4406 MEMB     32       DOPC     H15Y     HAL2     0.900000E-01   1.00800           0
      4407 MEMB     32       DOPC     C316     CTL2    -0.180000       12.0110           0
      4408 MEMB     32       DOPC     H16X     HAL2     0.900000E-01   1.00800           0
      4409 MEMB     32       DOPC     H16Y     HAL2     0.900000E-01   1.00800           0
      4410 MEMB     32       DOPC     C317     CTL2    -0.180000       12.0110           0
      4411 MEMB     32       DOPC     H17X     HAL2     0.900000E-01   1.00800           0
      4412 MEMB     32       DOPC     H17Y     HAL2     0.900000E-01   1.00800           0
      4413 MEMB     32       DOPC     C318     CTL3    -0.270000       12.0110           0
      4414 MEMB     32       DOPC     H18X     HAL3     0.900000E-01   1.00800           0
      4415 MEMB     32       DOPC     H18Y     HAL3     0.900000E-01   1.00800           0
      4416 MEMB     32       DOPC     H18Z     HAL3     0.900000E-01   1.00800           0
      4417 MEMB     33       DOPC     N        NTL     -0.600000       14.0070           0
      4418 MEMB     33       DOPC     C12      CTL2    -0.100000       12.0110           0
      4419 MEMB     33       DOPC     H12A     HL       0.250000       1.00800           0
      4420 MEMB     33       DOPC     H12B     HL       0.250000       1.00800           0
      4421 MEMB     33       DOPC     C13      CTL5    -0.350000       12.0110           0
      4422 MEMB     33       DOPC     H13A     HL       0.250000       1.00800           0
      4423 MEMB     33       DOPC     H13B     HL       0.250000       1.00800           0
      4424 MEMB     33       DOPC     H13C     HL       0.250000       1.00800           0
      4425 MEMB     33       DOPC     C14      CTL5    -0.350000       12.0110           0
      4426 MEMB     33       DOPC     H14A     HL       0.250000       1.00800           0
      4427 MEMB     33       DOPC     H14B     HL       0.250000       1.00800           0
      4428 MEMB     33       DOPC     H14C     HL       0.250000       1.00800           0
      4429 MEMB     33       DOPC     C15      CTL5    -0.350000       12.0110           0
      4430 MEMB     33       DOPC     H15A     HL       0.250000       1.00800           0
      4431 MEMB     33       DOPC     H15B     HL       0.250000       1.00800           0
      4432 MEMB     33       DOPC     H15C     HL       0.250000       1.00800           0
      4433 MEMB     33       DOPC     C11      CTL2    -0.800000E-01   12.0110           0
      4434 MEMB     33       DOPC     H11A     HAL2     0.900000E-01   1.00800           0
      4435 MEMB     33       DOPC     H11B     HAL2     0.900000E-01   1.00800           0
      4436 MEMB     33       DOPC     P        PL        1.50000       30.9740           0
      4437 MEMB     33       DOPC     O13      O2L     -0.780000       15.9994           0
      4438 MEMB     33       DOPC     O14      O2L     -0.780000       15.9994           0
      4439 MEMB     33       DOPC     O12      OSLP    -0.570000       15.9994           0
      4440 MEMB     33       DOPC     O11      OSLP    -0.570000       15.9994           0
      4441 MEMB     33       DOPC     C1       CTL2    -0.800000E-01   12.0110           0
      4442 MEMB     33       DOPC     HA       HAL2     0.900000E-01   1.00800           0
      4443 MEMB     33       DOPC     HB       HAL2     0.900000E-01   1.00800           0
      4444 MEMB     33       DOPC     C2       CTL1     0.170000       12.0110           0
      4445 MEMB     33       DOPC     HS       HAL1     0.900000E-01   1.00800           0
      4446 MEMB     33       DOPC     O21      OSL     -0.490000       15.9994           0
      4447 MEMB     33       DOPC     C21      CL       0.900000       12.0110           0
      4448 MEMB     33       DOPC     O22      OBL     -0.630000       15.9994           0
      4449 MEMB     33       DOPC     C22      CTL2    -0.220000       12.0110           0
      4450 MEMB     33       DOPC     H2R      HAL2     0.900000E-01   1.00800           0
      4451 MEMB     33       DOPC     H2S      HAL2     0.900000E-01   1.00800           0
      4452 MEMB     33       DOPC     C3       CTL2     0.800000E-01   12.0110           0
      4453 MEMB     33       DOPC     HX       HAL2     0.900000E-01   1.00800           0
      4454 MEMB     33       DOPC     HY       HAL2     0.900000E-01   1.00800           0
      4455 MEMB     33       DOPC     O31      OSL     -0.490000       15.9994           0
      4456 MEMB     33       DOPC     C31      CL       0.900000       12.0110           0
      4457 MEMB     33       DOPC     O32      OBL     -0.630000       15.9994           0
      4458 MEMB     33       DOPC     C32      CTL2    -0.220000       12.0110           0
      4459 MEMB     33       DOPC     H2X      HAL2     0.900000E-01   1.00800           0
      4460 MEMB     33       DOPC     H2Y      HAL2     0.900000E-01   1.00800           0
      4461 MEMB     33       DOPC     C23      CTL2    -0.180000       12.0110           0
      4462 MEMB     33       DOPC     H3R      HAL2     0.900000E-01   1.00800           0
      4463 MEMB     33       DOPC     H3S      HAL2     0.900000E-01   1.00800           0
      4464 MEMB     33       DOPC     C24      CTL2    -0.180000       12.0110           0
      4465 MEMB     33       DOPC     H4R      HAL2     0.900000E-01   1.00800           0
      4466 MEMB     33       DOPC     H4S      HAL2     0.900000E-01   1.00800           0
      4467 MEMB     33       DOPC     C25      CTL2    -0.180000       12.0110           0
      4468 MEMB     33       DOPC     H5R      HAL2     0.900000E-01   1.00800           0
      4469 MEMB     33       DOPC     H5S      HAL2     0.900000E-01   1.00800           0
      4470 MEMB     33       DOPC     C26      CTL2    -0.180000       12.0110           0
      4471 MEMB     33       DOPC     H6R      HAL2     0.900000E-01   1.00800           0
      4472 MEMB     33       DOPC     H6S      HAL2     0.900000E-01   1.00800           0
      4473 MEMB     33       DOPC     C27      CTL2    -0.180000       12.0110           0
      4474 MEMB     33       DOPC     H7R      HAL2     0.900000E-01   1.00800           0
      4475 MEMB     33       DOPC     H7S      HAL2     0.900000E-01   1.00800           0
      4476 MEMB     33       DOPC     C28      CTL2    -0.180000       12.0110           0
      4477 MEMB     33       DOPC     H8R      HAL2     0.900000E-01   1.00800           0
      4478 MEMB     33       DOPC     H8S      HAL2     0.900000E-01   1.00800           0
      4479 MEMB     33       DOPC     C29      CEL1    -0.150000       12.0110           0
      4480 MEMB     33       DOPC     H9R      HEL1     0.150000       1.00800           0
      4481 MEMB     33       DOPC     C210     CEL1    -0.150000       12.0110           0
      4482 MEMB     33       DOPC     H10R     HEL1     0.150000       1.00800           0
      4483 MEMB     33       DOPC     C211     CTL2    -0.180000       12.0110           0
      4484 MEMB     33       DOPC     H11R     HAL2     0.900000E-01   1.00800           0
      4485 MEMB     33       DOPC     H11S     HAL2     0.900000E-01   1.00800           0
      4486 MEMB     33       DOPC     C212     CTL2    -0.180000       12.0110           0
      4487 MEMB     33       DOPC     H12R     HAL2     0.900000E-01   1.00800           0
      4488 MEMB     33       DOPC     H12S     HAL2     0.900000E-01   1.00800           0
      4489 MEMB     33       DOPC     C213     CTL2    -0.180000       12.0110           0
      4490 MEMB     33       DOPC     H13R     HAL2     0.900000E-01   1.00800           0
      4491 MEMB     33       DOPC     H13S     HAL2     0.900000E-01   1.00800           0
      4492 MEMB     33       DOPC     C214     CTL2    -0.180000       12.0110           0
      4493 MEMB     33       DOPC     H14R     HAL2     0.900000E-01   1.00800           0
      4494 MEMB     33       DOPC     H14S     HAL2     0.900000E-01   1.00800           0
      4495 MEMB     33       DOPC     C215     CTL2    -0.180000       12.0110           0
      4496 MEMB     33       DOPC     H15R     HAL2     0.900000E-01   1.00800           0
      4497 MEMB     33       DOPC     H15S     HAL2     0.900000E-01   1.00800           0
      4498 MEMB     33       DOPC     C216     CTL2    -0.180000       12.0110           0
      4499 MEMB     33       DOPC     H16R     HAL2     0.900000E-01   1.00800           0
      4500 MEMB     33       DOPC     H16S     HAL2     0.900000E-01   1.00800           0
      4501 MEMB     33       DOPC     C217     CTL2    -0.180000       12.0110           0
      4502 MEMB     33       DOPC     H17R     HAL2     0.900000E-01   1.00800           0
      4503 MEMB     33       DOPC     H17S     HAL2     0.900000E-01   1.00800           0
      4504 MEMB     33       DOPC     C218     CTL3    -0.270000       12.0110           0
      4505 MEMB     33       DOPC     H18R     HAL3     0.900000E-01   1.00800           0
      4506 MEMB     33       DOPC     H18S     HAL3     0.900000E-01   1.00800           0
      4507 MEMB     33       DOPC     H18T     HAL3     0.900000E-01   1.00800           0
      4508 MEMB     33       DOPC     C33      CTL2    -0.180000       12.0110           0
      4509 MEMB     33       DOPC     H3X      HAL2     0.900000E-01   1.00800           0
      4510 MEMB     33       DOPC     H3Y      HAL2     0.900000E-01   1.00800           0
      4511 MEMB     33       DOPC     C34      CTL2    -0.180000       12.0110           0
      4512 MEMB     33       DOPC     H4X      HAL2     0.900000E-01   1.00800           0
      4513 MEMB     33       DOPC     H4Y      HAL2     0.900000E-01   1.00800           0
      4514 MEMB     33       DOPC     C35      CTL2    -0.180000       12.0110           0
      4515 MEMB     33       DOPC     H5X      HAL2     0.900000E-01   1.00800           0
      4516 MEMB     33       DOPC     H5Y      HAL2     0.900000E-01   1.00800           0
      4517 MEMB     33       DOPC     C36      CTL2    -0.180000       12.0110           0
      4518 MEMB     33       DOPC     H6X      HAL2     0.900000E-01   1.00800           0
      4519 MEMB     33       DOPC     H6Y      HAL2     0.900000E-01   1.00800           0
      4520 MEMB     33       DOPC     C37      CTL2    -0.180000       12.0110           0
      4521 MEMB     33       DOPC     H7X      HAL2     0.900000E-01   1.00800           0
      4522 MEMB     33       DOPC     H7Y      HAL2     0.900000E-01   1.00800           0
      4523 MEMB     33       DOPC     C38      CTL2    -0.180000       12.0110           0
      4524 MEMB     33       DOPC     H8X      HAL2     0.900000E-01   1.00800           0
      4525 MEMB     33       DOPC     H8Y      HAL2     0.900000E-01   1.00800           0
      4526 MEMB     33       DOPC     C39      CEL1    -0.150000       12.0110           0
      4527 MEMB     33       DOPC     H9X      HEL1     0.150000       1.00800           0
      4528 MEMB     33       DOPC     C310     CEL1    -0.150000       12.0110           0
      4529 MEMB     33       DOPC     H10X     HEL1     0.150000       1.00800           0
      4530 MEMB     33       DOPC     C311     CTL2    -0.180000       12.0110           0
      4531 MEMB     33       DOPC     H11X     HAL2     0.900000E-01   1.00800           0
      4532 MEMB     33       DOPC     H11Y     HAL2     0.900000E-01   1.00800           0
      4533 MEMB     33       DOPC     C312     CTL2    -0.180000       12.0110           0
      4534 MEMB     33       DOPC     H12X     HAL2     0.900000E-01   1.00800           0
      4535 MEMB     33       DOPC     H12Y     HAL2     0.900000E-01   1.00800           0
      4536 MEMB     33       DOPC     C313     CTL2    -0.180000       12.0110           0
      4537 MEMB     33       DOPC     H13X     HAL2     0.900000E-01   1.00800           0
      4538 MEMB     33       DOPC     H13Y     HAL2     0.900000E-01   1.00800           0
      4539 MEMB     33       DOPC     C314     CTL2    -0.180000       12.0110           0
      4540 MEMB     33       DOPC     H14X     HAL2     0.900000E-01   1.00800           0
      4541 MEMB     33       DOPC     H14Y     HAL2     0.900000E-01   1.00800           0
      4542 MEMB     33       DOPC     C315     CTL2    -0.180000       12.0110           0
      4543 MEMB     33       DOPC     H15X     HAL2     0.900000E-01   1.00800           0
      4544 MEMB     33       DOPC     H15Y     HAL2     0.900000E-01   1.00800           0
      4545 MEMB     33       DOPC     C316     CTL2    -0.180000       12.0110           0
      4546 MEMB     33       DOPC     H16X     HAL2     0.900000E-01   1.00800           0
      4547 MEMB     33       DOPC     H16Y     HAL2     0.900000E-01   1.00800           0
      4548 MEMB     33       DOPC     C317     CTL2    -0.180000       12.0110           0
      4549 MEMB     33       DOPC     H17X     HAL2     0.900000E-01   1.00800           0
      4550 MEMB     33       DOPC     H17Y     HAL2     0.900000E-01   1.00800           0
      4551 MEMB     33       DOPC     C318     CTL3    -0.270000       12.0110           0
      4552 MEMB     33       DOPC     H18X     HAL3     0.900000E-01   1.00800           0
      4553 MEMB     33       DOPC     H18Y     HAL3     0.900000E-01   1.00800           0
      4554 MEMB     33       DOPC     H18Z     HAL3     0.900000E-01   1.00800           0
      4555 MEMB     34       DOPC     N        NTL     -0.600000       14.0070           0
      4556 MEMB     34       DOPC     C12      CTL2    -0.100000       12.0110           0
      4557 MEMB     34       DOPC     H12A     HL       0.250000       1.00800           0
      4558 MEMB     34       DOPC     H12B     HL       0.250000       1.00800           0
      4559 MEMB     34       DOPC     C13      CTL5    -0.350000       12.0110           0
      4560 MEMB     34       DOPC     H13A     HL       0.250000       1.00800           0
      4561 MEMB     34       DOPC     H13B     HL       0.250000       1.00800           0
      4562 MEMB     34       DOPC     H13C     HL       0.250000       1.00800           0
      4563 MEMB     34       DOPC     C14      CTL5    -0.350000       12.0110           0
      4564 MEMB     34       DOPC     H14A     HL       0.250000       1.00800           0
      4565 MEMB     34       DOPC     H14B     HL       0.250000       1.00800           0
      4566 MEMB     34       DOPC     H14C     HL       0.250000       1.00800           0
      4567 MEMB     34       DOPC     C15      CTL5    -0.350000       12.0110           0
      4568 MEMB     34       DOPC     H15A     HL       0.250000       1.00800           0
      4569 MEMB     34       DOPC     H15B     HL       0.250000       1.00800           0
      4570 MEMB     34       DOPC     H15C     HL       0.250000       1.00800           0
      4571 MEMB     34       DOPC     C11      CTL2    -0.800000E-01   12.0110           0
      4572 MEMB     34       DOPC     H11A     HAL2     0.900000E-01   1.00800           0
      4573 MEMB     34       DOPC     H11B     HAL2     0.900000E-01   1.00800           0
      4574 MEMB     34       DOPC     P        PL        1.50000       30.9740           0
      4575 MEMB     34       DOPC     O13      O2L     -0.780000       15.9994           0
      4576 MEMB     34       DOPC     O14      O2L     -0.780000       15.9994           0
      4577 MEMB     34       DOPC     O12      OSLP    -0.570000       15.9994           0
      4578 MEMB     34       DOPC     O11      OSLP    -0.570000       15.9994           0
      4579 MEMB     34       DOPC     C1       CTL2    -0.800000E-01   12.0110           0
      4580 MEMB     34       DOPC     HA       HAL2     0.900000E-01   1.00800           0
      4581 MEMB     34       DOPC     HB       HAL2     0.900000E-01   1.00800           0
      4582 MEMB     34       DOPC     C2       CTL1     0.170000       12.0110           0
      4583 MEMB     34       DOPC     HS       HAL1     0.900000E-01   1.00800           0
      4584 MEMB     34       DOPC     O21      OSL     -0.490000       15.9994           0
      4585 MEMB     34       DOPC     C21      CL       0.900000       12.0110           0
      4586 MEMB     34       DOPC     O22      OBL     -0.630000       15.9994           0
      4587 MEMB     34       DOPC     C22      CTL2    -0.220000       12.0110           0
      4588 MEMB     34       DOPC     H2R      HAL2     0.900000E-01   1.00800           0
      4589 MEMB     34       DOPC     H2S      HAL2     0.900000E-01   1.00800           0
      4590 MEMB     34       DOPC     C3       CTL2     0.800000E-01   12.0110           0
      4591 MEMB     34       DOPC     HX       HAL2     0.900000E-01   1.00800           0
      4592 MEMB     34       DOPC     HY       HAL2     0.900000E-01   1.00800           0
      4593 MEMB     34       DOPC     O31      OSL     -0.490000       15.9994           0
      4594 MEMB     34       DOPC     C31      CL       0.900000       12.0110           0
      4595 MEMB     34       DOPC     O32      OBL     -0.630000       15.9994           0
      4596 MEMB     34       DOPC     C32      CTL2    -0.220000       12.0110           0
      4597 MEMB     34       DOPC     H2X      HAL2     0.900000E-01   1.00800           0
      4598 MEMB     34       DOPC     H2Y      HAL2     0.900000E-01   1.00800           0
      4599 MEMB     34       DOPC     C23      CTL2    -0.180000       12.0110           0
      4600 MEMB     34       DOPC     H3R      HAL2     0.900000E-01   1.00800           0
      4601 MEMB     34       DOPC     H3S      HAL2     0.900000E-01   1.00800           0
      4602 MEMB     34       DOPC     C24      CTL2    -0.180000       12.0110           0
      4603 MEMB     34       DOPC     H4R      HAL2     0.900000E-01   1.00800           0
      4604 MEMB     34       DOPC     H4S      HAL2     0.900000E-01   1.00800           0
      4605 MEMB     34       DOPC     C25      CTL2    -0.180000       12.0110           0
      4606 MEMB     34       DOPC     H5R      HAL2     0.900000E-01   1.00800           0
      4607 MEMB     34       DOPC     H5S      HAL2     0.900000E-01   1.00800           0
      4608 MEMB     34       DOPC     C26      CTL2    -0.180000       12.0110           0
      4609 MEMB     34       DOPC     H6R      HAL2     0.900000E-01   1.00800           0
      4610 MEMB     34       DOPC     H6S      HAL2     0.900000E-01   1.00800           0
      4611 MEMB     34       DOPC     C27      CTL2    -0.180000       12.0110           0
      4612 MEMB     34       DOPC     H7R      HAL2     0.900000E-01   1.00800           0
      4613 MEMB     34       DOPC     H7S      HAL2     0.900000E-01   1.00800           0
      4614 MEMB     34       DOPC     C28      CTL2    -0.180000       12.0110           0
      4615 MEMB     34       DOPC     H8R      HAL2     0.900000E-01   1.00800           0
      4616 MEMB     34       DOPC     H8S      HAL2     0.900000E-01   1.00800           0
      4617 MEMB     34       DOPC     C29      CEL1    -0.150000       12.0110           0
      4618 MEMB     34       DOPC     H9R      HEL1     0.150000       1.00800           0
      4619 MEMB     34       DOPC     C210     CEL1    -0.150000       12.0110           0
      4620 MEMB     34       DOPC     H10R     HEL1     0.150000       1.00800           0
      4621 MEMB     34       DOPC     C211     CTL2    -0.180000       12.0110           0
      4622 MEMB     34       DOPC     H11R     HAL2     0.900000E-01   1.00800           0
      4623 MEMB     34       DOPC     H11S     HAL2     0.900000E-01   1.00800           0
      4624 MEMB     34       DOPC     C212     CTL2    -0.180000       12.0110           0
      4625 MEMB     34       DOPC     H12R     HAL2     0.900000E-01   1.00800           0
      4626 MEMB     34       DOPC     H12S     HAL2     0.900000E-01   1.00800           0
      4627 MEMB     34       DOPC     C213     CTL2    -0.180000       12.0110           0
      4628 MEMB     34       DOPC     H13R     HAL2     0.900000E-01   1.00800           0
      4629 MEMB     34       DOPC     H13S     HAL2     0.900000E-01   1.00800           0
      4630 MEMB     34       DOPC     C214     CTL2    -0.180000       12.0110           0
      4631 MEMB     34       DOPC     H14R     HAL2     0.900000E-01   1.00800           0
      4632 MEMB     34       DOPC     H14S     HAL2     0.900000E-01   1.00800           0
      4633 MEMB     34       DOPC     C215     CTL2    -0.180000       12.0110           0
      4634 MEMB     34       DOPC     H15R     HAL2     0.900000E-01   1.00800           0
      4635 MEMB     34       DOPC     H15S     HAL2     0.900000E-01   1.00800           0
      4636 MEMB     34       DOPC     C216     CTL2    -0.180000       12.0110           0
      4637 MEMB     34       DOPC     H16R     HAL2     0.900000E-01   1.00800           0
      4638 MEMB     34       DOPC     H16S     HAL2     0.900000E-01   1.00800           0
      4639 MEMB     34       DOPC     C217     CTL2    -0.180000       12.0110           0
      4640 MEMB     34       DOPC     H17R     HAL2     0.900000E-01   1.00800           0
      4641 MEMB     34       DOPC     H17S     HAL2     0.900000E-01   1.00800           0
      4642 MEMB     34       DOPC     C218     CTL3    -0.270000       12.0110           0
      4643 MEMB     34       DOPC     H18R     HAL3     0.900000E-01   1.00800           0
      4644 MEMB     34       DOPC     H18S     HAL3     0.900000E-01   1.00800           0
      4645 MEMB     34       DOPC     H18T     HAL3     0.900000E-01   1.00800           0
      4646 MEMB     34       DOPC     C33      CTL2    -0.180000       12.0110           0
      4647 MEMB     34       DOPC     H3X      HAL2     0.900000E-01   1.00800           0
      4648 MEMB     34       DOPC     H3Y      HAL2     0.900000E-01   1.00800           0
      4649 MEMB     34       DOPC     C34      CTL2    -0.180000       12.0110           0
      4650 MEMB     34       DOPC     H4X      HAL2     0.900000E-01   1.00800           0
      4651 MEMB     34       DOPC     H4Y      HAL2     0.900000E-01   1.00800           0
      4652 MEMB     34       DOPC     C35      CTL2    -0.180000       12.0110           0
      4653 MEMB     34       DOPC     H5X      HAL2     0.900000E-01   1.00800           0
      4654 MEMB     34       DOPC     H5Y      HAL2     0.900000E-01   1.00800           0
      4655 MEMB     34       DOPC     C36      CTL2    -0.180000       12.0110           0
      4656 MEMB     34       DOPC     H6X      HAL2     0.900000E-01   1.00800           0
      4657 MEMB     34       DOPC     H6Y      HAL2     0.900000E-01   1.00800           0
      4658 MEMB     34       DOPC     C37      CTL2    -0.180000       12.0110           0
      4659 MEMB     34       DOPC     H7X      HAL2     0.900000E-01   1.00800           0
      4660 MEMB     34       DOPC     H7Y      HAL2     0.900000E-01   1.00800           0
      4661 MEMB     34       DOPC     C38      CTL2    -0.180000       12.0110           0
      4662 MEMB     34       DOPC     H8X      HAL2     0.900000E-01   1.00800           0
      4663 MEMB     34       DOPC     H8Y      HAL2     0.900000E-01   1.00800           0
      4664 MEMB     34       DOPC     C39      CEL1    -0.150000       12.0110           0
      4665 MEMB     34       DOPC     H9X      HEL1     0.150000       1.00800           0
      4666 MEMB     34       DOPC     C310     CEL1    -0.150000       12.0110           0
      4667 MEMB     34       DOPC     H10X     HEL1     0.150000       1.00800           0
      4668 MEMB     34       DOPC     C311     CTL2    -0.180000       12.0110           0
      4669 MEMB     34       DOPC     H11X     HAL2     0.900000E-01   1.00800           0
      4670 MEMB     34       DOPC     H11Y     HAL2     0.900000E-01   1.00800           0
      4671 MEMB     34       DOPC     C312     CTL2    -0.180000       12.0110           0
      4672 MEMB     34       DOPC     H12X     HAL2     0.900000E-01   1.00800           0
      4673 MEMB     34       DOPC     H12Y     HAL2     0.900000E-01   1.00800           0
      4674 MEMB     34       DOPC     C313     CTL2    -0.180000       12.0110           0
      4675 MEMB     34       DOPC     H13X     HAL2     0.900000E-01   1.00800           0
      4676 MEMB     34       DOPC     H13Y     HAL2     0.900000E-01   1.00800           0
      4677 MEMB     34       DOPC     C314     CTL2    -0.180000       12.0110           0
      4678 MEMB     34       DOPC     H14X     HAL2     0.900000E-01   1.00800           0
      4679 MEMB     34       DOPC     H14Y     HAL2     0.900000E-01   1.00800           0
      4680 MEMB     34       DOPC     C315     CTL2    -0.180000       12.0110           0
      4681 MEMB     34       DOPC     H15X     HAL2     0.900000E-01   1.00800           0
      4682 MEMB     34       DOPC     H15Y     HAL2     0.900000E-01   1.00800           0
      4683 MEMB     34       DOPC     C316     CTL2    -0.180000       12.0110           0
      4684 MEMB     34       DOPC     H16X     HAL2     0.900000E-01   1.00800           0
      4685 MEMB     34       DOPC     H16Y     HAL2     0.900000E-01   1.00800           0
      4686 MEMB     34       DOPC     C317     CTL2    -0.180000       12.0110           0
      4687 MEMB     34       DOPC     H17X     HAL2     0.900000E-01   1.00800           0
      4688 MEMB     34       DOPC     H17Y     HAL2     0.900000E-01   1.00800           0
      4689 MEMB     34       DOPC     C318     CTL3    -0.270000       12.0110           0
      4690 MEMB     34       DOPC     H18X     HAL3     0.900000E-01   1.00800           0
      4691 MEMB     34       DOPC     H18Y     HAL3     0.900000E-01   1.00800           0
      4692 MEMB     34       DOPC     H18Z     HAL3     0.900000E-01   1.00800           0
      4693 MEMB     35       DOPC     N        NTL     -0.600000       14.0070           0
      4694 MEMB     35       DOPC     C12      CTL2    -0.100000       12.0110           0
      4695 MEMB     35       DOPC     H12A     HL       0.250000       1.00800           0
      4696 MEMB     35       DOPC     H12B     HL       0.250000       1.00800           0
      4697 MEMB     35       DOPC     C13      CTL5    -0.350000       12.0110           0
      4698 MEMB     35       DOPC     H13A     HL       0.250000       1.00800           0
      4699 MEMB     35       DOPC     H13B     HL       0.250000       1.00800           0
      4700 MEMB     35       DOPC     H13C     HL       0.250000       1.00800           0
      4701 MEMB     35       DOPC     C14      CTL5    -0.350000       12.0110           0
      4702 MEMB     35       DOPC     H14A     HL       0.250000       1.00800           0
      4703 MEMB     35       DOPC     H14B     HL       0.250000       1.00800           0
      4704 MEMB     35       DOPC     H14C     HL       0.250000       1.00800           0
      4705 MEMB     35       DOPC     C15      CTL5    -0.350000       12.0110           0
      4706 MEMB     35       DOPC     H15A     HL       0.250000       1.00800           0
      4707 MEMB     35       DOPC     H15B     HL       0.250000       1.00800           0
      4708 MEMB     35       DOPC     H15C     HL       0.250000       1.00800           0
      4709 MEMB     35       DOPC     C11      CTL2    -0.800000E-01   12.0110           0
      4710 MEMB     35       DOPC     H11A     HAL2     0.900000E-01   1.00800           0
      4711 MEMB     35       DOPC     H11B     HAL2     0.900000E-01   1.00800           0
      4712 MEMB     35       DOPC     P        PL        1.50000       30.9740           0
      4713 MEMB     35       DOPC     O13      O2L     -0.780000       15.9994           0
      4714 MEMB     35       DOPC     O14      O2L     -0.780000       15.9994           0
      4715 MEMB     35       DOPC     O12      OSLP    -0.570000       15.9994           0
      4716 MEMB     35       DOPC     O11      OSLP    -0.570000       15.9994           0
      4717 MEMB     35       DOPC     C1       CTL2    -0.800000E-01   12.0110           0
      4718 MEMB     35       DOPC     HA       HAL2     0.900000E-01   1.00800           0
      4719 MEMB     35       DOPC     HB       HAL2     0.900000E-01   1.00800           0
      4720 MEMB     35       DOPC     C2       CTL1     0.170000       12.0110           0
      4721 MEMB     35       DOPC     HS       HAL1     0.900000E-01   1.00800           0
      4722 MEMB     35       DOPC     O21      OSL     -0.490000       15.9994           0
      4723 MEMB     35       DOPC     C21      CL       0.900000       12.0110           0
      4724 MEMB     35       DOPC     O22      OBL     -0.630000       15.9994           0
      4725 MEMB     35       DOPC     C22      CTL2    -0.220000       12.0110           0
      4726 MEMB     35       DOPC     H2R      HAL2     0.900000E-01   1.00800           0
      4727 MEMB     35       DOPC     H2S      HAL2     0.900000E-01   1.00800           0
      4728 MEMB     35       DOPC     C3       CTL2     0.800000E-01   12.0110           0
      4729 MEMB     35       DOPC     HX       HAL2     0.900000E-01   1.00800           0
      4730 MEMB     35       DOPC     HY       HAL2     0.900000E-01   1.00800           0
      4731 MEMB     35       DOPC     O31      OSL     -0.490000       15.9994           0
      4732 MEMB     35       DOPC     C31      CL       0.900000       12.0110           0
      4733 MEMB     35       DOPC     O32      OBL     -0.630000       15.9994           0
      4734 MEMB     35       DOPC     C32      CTL2    -0.220000       12.0110           0
      4735 MEMB     35       DOPC     H2X      HAL2     0.900000E-01   1.00800           0
      4736 MEMB     35       DOPC     H2Y      HAL2     0.900000E-01   1.00800           0
      4737 MEMB     35       DOPC     C23      CTL2    -0.180000       12.0110           0
      4738 MEMB     35       DOPC     H3R      HAL2     0.900000E-01   1.00800           0
      4739 MEMB     35       DOPC     H3S      HAL2     0.900000E-01   1.00800           0
      4740 MEMB     35       DOPC     C24      CTL2    -0.180000       12.0110           0
      4741 MEMB     35       DOPC     H4R      HAL2     0.900000E-01   1.00800           0
      4742 MEMB     35       DOPC     H4S      HAL2     0.900000E-01   1.00800           0
      4743 MEMB     35       DOPC     C25      CTL2    -0.180000       12.0110           0
      4744 MEMB     35       DOPC     H5R      HAL2     0.900000E-01   1.00800           0
      4745 MEMB     35       DOPC     H5S      HAL2     0.900000E-01   1.00800           0
      4746 MEMB     35       DOPC     C26      CTL2    -0.180000       12.0110           0
      4747 MEMB     35       DOPC     H6R      HAL2     0.900000E-01   1.00800           0
      4748 MEMB     35       DOPC     H6S      HAL2     0.900000E-01   1.00800           0
      4749 MEMB     35       DOPC     C27      CTL2    -0.180000       12.0110           0
      4750 MEMB     35       DOPC     H7R      HAL2     0.900000E-01   1.00800           0
      4751 MEMB     35       DOPC     H7S      HAL2     0.900000E-01   1.00800           0
      4752 MEMB     35       DOPC     C28      CTL2    -0.180000       12.0110           0
      4753 MEMB     35       DOPC     H8R      HAL2     0.900000E-01   1.00800           0
      4754 MEMB     35       DOPC     H8S      HAL2     0.900000E-01   1.00800           0
      4755 MEMB     35       DOPC     C29      CEL1    -0.150000       12.0110           0
      4756 MEMB     35       DOPC     H9R      HEL1     0.150000       1.00800           0
      4757 MEMB     35       DOPC     C210     CEL1    -0.150000       12.0110           0
      4758 MEMB     35       DOPC     H10R     HEL1     0.150000       1.00800           0
      4759 MEMB     35       DOPC     C211     CTL2    -0.180000       12.0110           0
      4760 MEMB     35       DOPC     H11R     HAL2     0.900000E-01   1.00800           0
      4761 MEMB     35       DOPC     H11S     HAL2     0.900000E-01   1.00800           0
      4762 MEMB     35       DOPC     C212     CTL2    -0.180000       12.0110           0
      4763 MEMB     35       DOPC     H12R     HAL2     0.900000E-01   1.00800           0
      4764 MEMB     35       DOPC     H12S     HAL2     0.900000E-01   1.00800           0
      4765 MEMB     35       DOPC     C213     CTL2    -0.180000       12.0110           0
      4766 MEMB     35       DOPC     H13R     HAL2     0.900000E-01   1.00800           0
      4767 MEMB     35       DOPC     H13S     HAL2     0.900000E-01   1.00800           0
      4768 MEMB     35       DOPC     C214     CTL2    -0.180000       12.0110           0
      4769 MEMB     35       DOPC     H14R     HAL2     0.900000E-01   1.00800           0
      4770 MEMB     35       DOPC     H14S     HAL2     0.900000E-01   1.00800           0
      4771 MEMB     35       DOPC     C215     CTL2    -0.180000       12.0110           0
      4772 MEMB     35       DOPC     H15R     HAL2     0.900000E-01   1.00800           0
      4773 MEMB     35       DOPC     H15S     HAL2     0.900000E-01   1.00800           0
      4774 MEMB     35       DOPC     C216     CTL2    -0.180000       12.0110           0
      4775 MEMB     35       DOPC     H16R     HAL2     0.900000E-01   1.00800           0
      4776 MEMB     35       DOPC     H16S     HAL2     0.900000E-01   1.00800           0
      4777 MEMB     35       DOPC     C217     CTL2    -0.180000       12.0110           0
      4778 MEMB     35       DOPC     H17R     HAL2     0.900000E-01   1.00800           0
      4779 MEMB     35       DOPC     H17S     HAL2     0.900000E-01   1.00800           0
      4780 MEMB     35       DOPC     C218     CTL3    -0.270000       12.0110           0
      4781 MEMB     35       DOPC     H18R     HAL3     0.900000E-01   1.00800           0
      4782 MEMB     35       DOPC     H18S     HAL3     0.900000E-01   1.00800           0
      4783 MEMB     35       DOPC     H18T     HAL3     0.900000E-01   1.00800           0
      4784 MEMB     35       DOPC     C33      CTL2    -0.180000       12.0110           0
      4785 MEMB     35       DOPC     H3X      HAL2     0.900000E-01   1.00800           0
      4786 MEMB     35       DOPC     H3Y      HAL2     0.900000E-01   1.00800           0
      4787 MEMB     35       DOPC     C34      CTL2    -0.180000       12.0110           0
      4788 MEMB     35       DOPC     H4X      HAL2     0.900000E-01   1.00800           0
      4789 MEMB     35       DOPC     H4Y      HAL2     0.900000E-01   1.00800           0
      4790 MEMB     35       DOPC     C35      CTL2    -0.180000       12.0110           0
      4791 MEMB     35       DOPC     H5X      HAL2     0.900000E-01   1.00800           0
      4792 MEMB     35       DOPC     H5Y      HAL2     0.900000E-01   1.00800           0
      4793 MEMB     35       DOPC     C36      CTL2    -0.180000       12.0110           0
      4794 MEMB     35       DOPC     H6X      HAL2     0.900000E-01   1.00800           0
      4795 MEMB     35       DOPC     H6Y      HAL2     0.900000E-01   1.00800           0
      4796 MEMB     35       DOPC     C37      CTL2    -0.180000       12.0110           0
      4797 MEMB     35       DOPC     H7X      HAL2     0.900000E-01   1.00800           0
      4798 MEMB     35       DOPC     H7Y      HAL2     0.900000E-01   1.00800           0
      4799 MEMB     35       DOPC     C38      CTL2    -0.180000       12.0110           0
      4800 MEMB     35       DOPC     H8X      HAL2     0.900000E-01   1.00800           0
      4801 MEMB     35       DOPC     H8Y      HAL2     0.900000E-01   1.00800           0
      4802 MEMB     35       DOPC     C39      CEL1    -0.150000       12.0110           0
      4803 MEMB     35       DOPC     H9X      HEL1     0.150000       1.00800           0
      4804 MEMB     35       DOPC     C310     CEL1    -0.150000       12.0110           0
      4805 MEMB     35       DOPC     H10X     HEL1     0.150000       1.00800           0
      4806 MEMB     35       DOPC     C311     CTL2    -0.180000       12.0110           0
      4807 MEMB     35       DOPC     H11X     HAL2     0.900000E-01   1.00800           0
      4808 MEMB     35       DOPC     H11Y     HAL2     0.900000E-01   1.00800           0
      4809 MEMB     35       DOPC     C312     CTL2    -0.180000       12.0110           0
      4810 MEMB     35       DOPC     H12X     HAL2     0.900000E-01   1.00800           0
      4811 MEMB     35       DOPC     H12Y     HAL2     0.900000E-01   1.00800           0
      4812 MEMB     35       DOPC     C313     CTL2    -0.180000       12.0110           0
      4813 MEMB     35       DOPC     H13X     HAL2     0.900000E-01   1.00800           0
      4814 MEMB     35       DOPC     H13Y     HAL2     0.900000E-01   1.00800           0
      4815 MEMB     35       DOPC     C314     CTL2    -0.180000       12.0110           0
      4816 MEMB     35       DOPC     H14X     HAL2     0.900000E-01   1.00800           0
      4817 MEMB     35       DOPC     H14Y     HAL2     0.900000E-01   1.00800           0
      4818 MEMB     35       DOPC     C315     CTL2    -0.180000       12.0110           0
      4819 MEMB     35       DOPC     H15X     HAL2     0.900000E-01   1.00800           0
      4820 MEMB     35       DOPC     H15Y     HAL2     0.900000E-01   1.00800           0
      4821 MEMB     35       DOPC     C316     CTL2    -0.180000       12.0110           0
      4822 MEMB     35       DOPC     H16X     HAL2     0.900000E-01   1.00800           0
      4823 MEMB     35       DOPC     H16Y     HAL2     0.900000E-01   1.00800           0
      4824 MEMB     35       DOPC     C317     CTL2    -0.180000       12.0110           0
      4825 MEMB     35       DOPC     H17X     HAL2     0.900000E-01   1.00800           0
      4826 MEMB     35       DOPC     H17Y     HAL2     0.900000E-01   1.00800           0
      4827 MEMB     35       DOPC     C318     CTL3    -0.270000       12.0110           0
      4828 MEMB     35       DOPC     H18X     HAL3     0.900000E-01   1.00800           0
      4829 MEMB     35       DOPC     H18Y     HAL3     0.900000E-01   1.00800           0
      4830 MEMB     35       DOPC     H18Z     HAL3     0.900000E-01   1.00800           0
      4831 MEMB     36       DOPC     N        NTL     -0.600000       14.0070           0
      4832 MEMB     36       DOPC     C12      CTL2    -0.100000       12.0110           0
      4833 MEMB     36       DOPC     H12A     HL       0.250000       1.00800           0
      4834 MEMB     36       DOPC     H12B     HL       0.250000       1.00800           0
      4835 MEMB     36       DOPC     C13      CTL5    -0.350000       12.0110           0
      4836 MEMB     36       DOPC     H13A     HL       0.250000       1.00800           0
      4837 MEMB     36       DOPC     H13B     HL       0.250000       1.00800           0
      4838 MEMB     36       DOPC     H13C     HL       0.250000       1.00800           0
      4839 MEMB     36       DOPC     C14      CTL5    -0.350000       12.0110           0
      4840 MEMB     36       DOPC     H14A     HL       0.250000       1.00800           0
      4841 MEMB     36       DOPC     H14B     HL       0.250000       1.00800           0
      4842 MEMB     36       DOPC     H14C     HL       0.250000       1.00800           0
      4843 MEMB     36       DOPC     C15      CTL5    -0.350000       12.0110           0
      4844 MEMB     36       DOPC     H15A     HL       0.250000       1.00800           0
      4845 MEMB     36       DOPC     H15B     HL       0.250000       1.00800           0
      4846 MEMB     36       DOPC     H15C     HL       0.250000       1.00800           0
      4847 MEMB     36       DOPC     C11      CTL2    -0.800000E-01   12.0110           0
      4848 MEMB     36       DOPC     H11A     HAL2     0.900000E-01   1.00800           0
      4849 MEMB     36       DOPC     H11B     HAL2     0.900000E-01   1.00800           0
      4850 MEMB     36       DOPC     P        PL        1.50000       30.9740           0
      4851 MEMB     36       DOPC     O13      O2L     -0.780000       15.9994           0
      4852 MEMB     36       DOPC     O14      O2L     -0.780000       15.9994           0
      4853 MEMB     36       DOPC     O12      OSLP    -0.570000       15.9994           0
      4854 MEMB     36       DOPC     O11      OSLP    -0.570000       15.9994           0
      4855 MEMB     36       DOPC     C1       CTL2    -0.800000E-01   12.0110           0
      4856 MEMB     36       DOPC     HA       HAL2     0.900000E-01   1.00800           0
      4857 MEMB     36       DOPC     HB       HAL2     0.900000E-01   1.00800           0
      4858 MEMB     36       DOPC     C2       CTL1     0.170000       12.0110           0
      4859 MEMB     36       DOPC     HS       HAL1     0.900000E-01   1.00800           0
      4860 MEMB     36       DOPC     O21      OSL     -0.490000       15.9994           0
      4861 MEMB     36       DOPC     C21      CL       0.900000       12.0110           0
      4862 MEMB     36       DOPC     O22      OBL     -0.630000       15.9994           0
      4863 MEMB     36       DOPC     C22      CTL2    -0.220000       12.0110           0
      4864 MEMB     36       DOPC     H2R      HAL2     0.900000E-01   1.00800           0
      4865 MEMB     36       DOPC     H2S      HAL2     0.900000E-01   1.00800           0
      4866 MEMB     36       DOPC     C3       CTL2     0.800000E-01   12.0110           0
      4867 MEMB     36       DOPC     HX       HAL2     0.900000E-01   1.00800           0
      4868 MEMB     36       DOPC     HY       HAL2     0.900000E-01   1.00800           0
      4869 MEMB     36       DOPC     O31      OSL     -0.490000       15.9994           0
      4870 MEMB     36       DOPC     C31      CL       0.900000       12.0110           0
      4871 MEMB     36       DOPC     O32      OBL     -0.630000       15.9994           0
      4872 MEMB     36       DOPC     C32      CTL2    -0.220000       12.0110           0
      4873 MEMB     36       DOPC     H2X      HAL2     0.900000E-01   1.00800           0
      4874 MEMB     36       DOPC     H2Y      HAL2     0.900000E-01   1.00800           0
      4875 MEMB     36       DOPC     C23      CTL2    -0.180000       12.0110           0
      4876 MEMB     36       DOPC     H3R      HAL2     0.900000E-01   1.00800           0
      4877 MEMB     36       DOPC     H3S      HAL2     0.900000E-01   1.00800           0
      4878 MEMB     36       DOPC     C24      CTL2    -0.180000       12.0110           0
      4879 MEMB     36       DOPC     H4R      HAL2     0.900000E-01   1.00800           0
      4880 MEMB     36       DOPC     H4S      HAL2     0.900000E-01   1.00800           0
      4881 MEMB     36       DOPC     C25      CTL2    -0.180000       12.0110           0
      4882 MEMB     36       DOPC     H5R      HAL2     0.900000E-01   1.00800           0
      4883 MEMB     36       DOPC     H5S      HAL2     0.900000E-01   1.00800           0
      4884 MEMB     36       DOPC     C26      CTL2    -0.180000       12.0110           0
      4885 MEMB     36       DOPC     H6R      HAL2     0.900000E-01   1.00800           0
      4886 MEMB     36       DOPC     H6S      HAL2     0.900000E-01   1.00800           0
      4887 MEMB     36       DOPC     C27      CTL2    -0.180000       12.0110           0
      4888 MEMB     36       DOPC     H7R      HAL2     0.900000E-01   1.00800           0
      4889 MEMB     36       DOPC     H7S      HAL2     0.900000E-01   1.00800           0
      4890 MEMB     36       DOPC     C28      CTL2    -0.180000       12.0110           0
      4891 MEMB     36       DOPC     H8R      HAL2     0.900000E-01   1.00800           0
      4892 MEMB     36       DOPC     H8S      HAL2     0.900000E-01   1.00800           0
      4893 MEMB     36       DOPC     C29      CEL1    -0.150000       12.0110           0
      4894 MEMB     36       DOPC     H9R      HEL1     0.150000       1.00800           0
      4895 MEMB     36       DOPC     C210     CEL1    -0.150000       12.0110           0
      4896 MEMB     36       DOPC     H10R     HEL1     0.150000       1.00800           0
      4897 MEMB     36       DOPC     C211     CTL2    -0.180000       12.0110           0
      4898 MEMB     36       DOPC     H11R     HAL2     0.900000E-01   1.00800           0
      4899 MEMB     36       DOPC     H11S     HAL2     0.900000E-01   1.00800           0
      4900 MEMB     36       DOPC     C212     CTL2    -0.180000       12.0110           0
      4901 MEMB     36       DOPC     H12R     HAL2     0.900000E-01   1.00800           0
      4902 MEMB     36       DOPC     H12S     HAL2     0.900000E-01   1.00800           0
      4903 MEMB     36       DOPC     C213     CTL2    -0.180000       12.0110           0
      4904 MEMB     36       DOPC     H13R     HAL2     0.900000E-01   1.00800           0
      4905 MEMB     36       DOPC     H13S     HAL2     0.900000E-01   1.00800           0
      4906 MEMB     36       DOPC     C214     CTL2    -0.180000       12.0110           0
      4907 MEMB     36       DOPC     H14R     HAL2     0.900000E-01   1.00800           0
      4908 MEMB     36       DOPC     H14S     HAL2     0.900000E-01   1.00800           0
      4909 MEMB     36       DOPC     C215     CTL2    -0.180000       12.0110           0
      4910 MEMB     36       DOPC     H15R     HAL2     0.900000E-01   1.00800           0
      4911 MEMB     36       DOPC     H15S     HAL2     0.900000E-01   1.00800           0
      4912 MEMB     36       DOPC     C216     CTL2    -0.180000       12.0110           0
      4913 MEMB     36       DOPC     H16R     HAL2     0.900000E-01   1.00800           0
      4914 MEMB     36       DOPC     H16S     HAL2     0.900000E-01   1.00800           0
      4915 MEMB     36       DOPC     C217     CTL2    -0.180000       12.0110           0
      4916 MEMB     36       DOPC     H17R     HAL2     0.900000E-01   1.00800           0
      4917 MEMB     36       DOPC     H17S     HAL2     0.900000E-01   1.00800           0
      4918 MEMB     36       DOPC     C218     CTL3    -0.270000       12.0110           0
      4919 MEMB     36       DOPC     H18R     HAL3     0.900000E-01   1.00800           0
      4920 MEMB     36       DOPC     H18S     HAL3     0.900000E-01   1.00800           0
      4921 MEMB     36       DOPC     H18T     HAL3     0.900000E-01   1.00800           0
      4922 MEMB     36       DOPC     C33      CTL2    -0.180000       12.0110           0
      4923 MEMB     36       DOPC     H3X      HAL2     0.900000E-01   1.00800           0
      4924 MEMB     36       DOPC     H3Y      HAL2     0.900000E-01   1.00800           0
      4925 MEMB     36       DOPC     C34      CTL2    -0.180000       12.0110           0
      4926 MEMB     36       DOPC     H4X      HAL2     0.900000E-01   1.00800           0
      4927 MEMB     36       DOPC     H4Y      HAL2     0.900000E-01   1.00800           0
      4928 MEMB     36       DOPC     C35      CTL2    -0.180000       12.0110           0
      4929 MEMB     36       DOPC     H5X      HAL2     0.900000E-01   1.00800           0
      4930 MEMB     36       DOPC     H5Y      HAL2     0.900000E-01   1.00800           0
      4931 MEMB     36       DOPC     C36      CTL2    -0.180000       12.0110           0
      4932 MEMB     36       DOPC     H6X      HAL2     0.900000E-01   1.00800           0
      4933 MEMB     36       DOPC     H6Y      HAL2     0.900000E-01   1.00800           0
      4934 MEMB     36       DOPC     C37      CTL2    -0.180000       12.0110           0
      4935 MEMB     36       DOPC     H7X      HAL2     0.900000E-01   1.00800           0
      4936 MEMB     36       DOPC     H7Y      HAL2     0.900000E-01   1.00800           0
      4937 MEMB     36       DOPC     C38      CTL2    -0.180000       12.0110           0
      4938 MEMB     36       DOPC     H8X      HAL2     0.900000E-01   1.00800           0
      4939 MEMB     36       DOPC     H8Y      HAL2     0.900000E-01   1.00800           0
      4940 MEMB     36       DOPC     C39      CEL1    -0.150000       12.0110           0
      4941 MEMB     36       DOPC     H9X      HEL1     0.150000       1.00800           0
      4942 MEMB     36       DOPC     C310     CEL1    -0.150000       12.0110           0
      4943 MEMB     36       DOPC     H10X     HEL1     0.150000       1.00800           0
      4944 MEMB     36       DOPC     C311     CTL2    -0.180000       12.0110           0
      4945 MEMB     36       DOPC     H11X     HAL2     0.900000E-01   1.00800           0
      4946 MEMB     36       DOPC     H11Y     HAL2     0.900000E-01   1.00800           0
      4947 MEMB     36       DOPC     C312     CTL2    -0.180000       12.0110           0
      4948 MEMB     36       DOPC     H12X     HAL2     0.900000E-01   1.00800           0
      4949 MEMB     36       DOPC     H12Y     HAL2     0.900000E-01   1.00800           0
      4950 MEMB     36       DOPC     C313     CTL2    -0.180000       12.0110           0
      4951 MEMB     36       DOPC     H13X     HAL2     0.900000E-01   1.00800           0
      4952 MEMB     36       DOPC     H13Y     HAL2     0.900000E-01   1.00800           0
      4953 MEMB     36       DOPC     C314     CTL2    -0.180000       12.0110           0
      4954 MEMB     36       DOPC     H14X     HAL2     0.900000E-01   1.00800           0
      4955 MEMB     36       DOPC     H14Y     HAL2     0.900000E-01   1.00800           0
      4956 MEMB     36       DOPC     C315     CTL2    -0.180000       12.0110           0
      4957 MEMB     36       DOPC     H15X     HAL2     0.900000E-01   1.00800           0
      4958 MEMB     36       DOPC     H15Y     HAL2     0.900000E-01   1.00800           0
      4959 MEMB     36       DOPC     C316     CTL2    -0.180000       12.0110           0
      4960 MEMB     36       DOPC     H16X     HAL2     0.900000E-01   1.00800           0
      4961 MEMB     36       DOPC     H16Y     HAL2     0.900000E-01   1.00800           0
      4962 MEMB     36       DOPC     C317     CTL2    -0.180000       12.0110           0
      4963 MEMB     36       DOPC     H17X     HAL2     0.900000E-01   1.00800           0
      4964 MEMB     36       DOPC     H17Y     HAL2     0.900000E-01   1.00800           0
      4965 MEMB     36       DOPC     C318     CTL3    -0.270000       12.0110           0
      4966 MEMB     36       DOPC     H18X     HAL3     0.900000E-01   1.00800           0
      4967 MEMB     36       DOPC     H18Y     HAL3     0.900000E-01   1.00800           0
      4968 MEMB     36       DOPC     H18Z     HAL3     0.900000E-01   1.00800           0
      4969 MEMB     37       DOPC     N        NTL     -0.600000       14.0070           0
      4970 MEMB     37       DOPC     C12      CTL2    -0.100000       12.0110           0
      4971 MEMB     37       DOPC     H12A     HL       0.250000       1.00800           0
      4972 MEMB     37       DOPC     H12B     HL       0.250000       1.00800           0
      4973 MEMB     37       DOPC     C13      CTL5    -0.350000       12.0110           0
      4974 MEMB     37       DOPC     H13A     HL       0.250000       1.00800           0
      4975 MEMB     37       DOPC     H13B     HL       0.250000       1.00800           0
      4976 MEMB     37       DOPC     H13C     HL       0.250000       1.00800           0
      4977 MEMB     37       DOPC     C14      CTL5    -0.350000       12.0110           0
      4978 MEMB     37       DOPC     H14A     HL       0.250000       1.00800           0
      4979 MEMB     37       DOPC     H14B     HL       0.250000       1.00800           0
      4980 MEMB     37       DOPC     H14C     HL       0.250000       1.00800           0
      4981 MEMB     37       DOPC     C15      CTL5    -0.350000       12.0110           0
      4982 MEMB     37       DOPC     H15A     HL       0.250000       1.00800           0
      4983 MEMB     37       DOPC     H15B     HL       0.250000       1.00800           0
      4984 MEMB     37       DOPC     H15C     HL       0.250000       1.00800           0
      4985 MEMB     37       DOPC     C11      CTL2    -0.800000E-01   12.0110           0
      4986 MEMB     37       DOPC     H11A     HAL2     0.900000E-01   1.00800           0
      4987 MEMB     37       DOPC     H11B     HAL2     0.900000E-01   1.00800           0
      4988 MEMB     37       DOPC     P        PL        1.50000       30.9740           0
      4989 MEMB     37       DOPC     O13      O2L     -0.780000       15.9994           0
      4990 MEMB     37       DOPC     O14      O2L     -0.780000       15.9994           0
      4991 MEMB     37       DOPC     O12      OSLP    -0.570000       15.9994           0
      4992 MEMB     37       DOPC     O11      OSLP    -0.570000       15.9994           0
      4993 MEMB     37       DOPC     C1       CTL2    -0.800000E-01   12.0110           0
      4994 MEMB     37       DOPC     HA       HAL2     0.900000E-01   1.00800           0
      4995 MEMB     37       DOPC     HB       HAL2     0.900000E-01   1.00800           0
      4996 MEMB     37       DOPC     C2       CTL1     0.170000       12.0110           0
      4997 MEMB     37       DOPC     HS       HAL1     0.900000E-01   1.00800           0
      4998 MEMB     37       DOPC     O21      OSL     -0.490000       15.9994           0
      4999 MEMB     37       DOPC     C21      CL       0.900000       12.0110           0
      5000 MEMB     37       DOPC     O22      OBL     -0.630000       15.9994           0
      5001 MEMB     37       DOPC     C22      CTL2    -0.220000       12.0110           0
      5002 MEMB     37       DOPC     H2R      HAL2     0.900000E-01   1.00800           0
      5003 MEMB     37       DOPC     H2S      HAL2     0.900000E-01   1.00800           0
      5004 MEMB     37       DOPC     C3       CTL2     0.800000E-01   12.0110           0
      5005 MEMB     37       DOPC     HX       HAL2     0.900000E-01   1.00800           0
      5006 MEMB     37       DOPC     HY       HAL2     0.900000E-01   1.00800           0
      5007 MEMB     37       DOPC     O31      OSL     -0.490000       15.9994           0
      5008 MEMB     37       DOPC     C31      CL       0.900000       12.0110           0
      5009 MEMB     37       DOPC     O32      OBL     -0.630000       15.9994           0
      5010 MEMB     37       DOPC     C32      CTL2    -0.220000       12.0110           0
      5011 MEMB     37       DOPC     H2X      HAL2     0.900000E-01   1.00800           0
      5012 MEMB     37       DOPC     H2Y      HAL2     0.900000E-01   1.00800           0
      5013 MEMB     37       DOPC     C23      CTL2    -0.180000       12.0110           0
      5014 MEMB     37       DOPC     H3R      HAL2     0.900000E-01   1.00800           0
      5015 MEMB     37       DOPC     H3S      HAL2     0.900000E-01   1.00800           0
      5016 MEMB     37       DOPC     C24      CTL2    -0.180000       12.0110           0
      5017 MEMB     37       DOPC     H4R      HAL2     0.900000E-01   1.00800           0
      5018 MEMB     37       DOPC     H4S      HAL2     0.900000E-01   1.00800           0
      5019 MEMB     37       DOPC     C25      CTL2    -0.180000       12.0110           0
      5020 MEMB     37       DOPC     H5R      HAL2     0.900000E-01   1.00800           0
      5021 MEMB     37       DOPC     H5S      HAL2     0.900000E-01   1.00800           0
      5022 MEMB     37       DOPC     C26      CTL2    -0.180000       12.0110           0
      5023 MEMB     37       DOPC     H6R      HAL2     0.900000E-01   1.00800           0
      5024 MEMB     37       DOPC     H6S      HAL2     0.900000E-01   1.00800           0
      5025 MEMB     37       DOPC     C27      CTL2    -0.180000       12.0110           0
      5026 MEMB     37       DOPC     H7R      HAL2     0.900000E-01   1.00800           0
      5027 MEMB     37       DOPC     H7S      HAL2     0.900000E-01   1.00800           0
      5028 MEMB     37       DOPC     C28      CTL2    -0.180000       12.0110           0
      5029 MEMB     37       DOPC     H8R      HAL2     0.900000E-01   1.00800           0
      5030 MEMB     37       DOPC     H8S      HAL2     0.900000E-01   1.00800           0
      5031 MEMB     37       DOPC     C29      CEL1    -0.150000       12.0110           0
      5032 MEMB     37       DOPC     H9R      HEL1     0.150000       1.00800           0
      5033 MEMB     37       DOPC     C210     CEL1    -0.150000       12.0110           0
      5034 MEMB     37       DOPC     H10R     HEL1     0.150000       1.00800           0
      5035 MEMB     37       DOPC     C211     CTL2    -0.180000       12.0110           0
      5036 MEMB     37       DOPC     H11R     HAL2     0.900000E-01   1.00800           0
      5037 MEMB     37       DOPC     H11S     HAL2     0.900000E-01   1.00800           0
      5038 MEMB     37       DOPC     C212     CTL2    -0.180000       12.0110           0
      5039 MEMB     37       DOPC     H12R     HAL2     0.900000E-01   1.00800           0
      5040 MEMB     37       DOPC     H12S     HAL2     0.900000E-01   1.00800           0
      5041 MEMB     37       DOPC     C213     CTL2    -0.180000       12.0110           0
      5042 MEMB     37       DOPC     H13R     HAL2     0.900000E-01   1.00800           0
      5043 MEMB     37       DOPC     H13S     HAL2     0.900000E-01   1.00800           0
      5044 MEMB     37       DOPC     C214     CTL2    -0.180000       12.0110           0
      5045 MEMB     37       DOPC     H14R     HAL2     0.900000E-01   1.00800           0
      5046 MEMB     37       DOPC     H14S     HAL2     0.900000E-01   1.00800           0
      5047 MEMB     37       DOPC     C215     CTL2    -0.180000       12.0110           0
      5048 MEMB     37       DOPC     H15R     HAL2     0.900000E-01   1.00800           0
      5049 MEMB     37       DOPC     H15S     HAL2     0.900000E-01   1.00800           0
      5050 MEMB     37       DOPC     C216     CTL2    -0.180000       12.0110           0
      5051 MEMB     37       DOPC     H16R     HAL2     0.900000E-01   1.00800           0
      5052 MEMB     37       DOPC     H16S     HAL2     0.900000E-01   1.00800           0
      5053 MEMB     37       DOPC     C217     CTL2    -0.180000       12.0110           0
      5054 MEMB     37       DOPC     H17R     HAL2     0.900000E-01   1.00800           0
      5055 MEMB     37       DOPC     H17S     HAL2     0.900000E-01   1.00800           0
      5056 MEMB     37       DOPC     C218     CTL3    -0.270000       12.0110           0
      5057 MEMB     37       DOPC     H18R     HAL3     0.900000E-01   1.00800           0
      5058 MEMB     37       DOPC     H18S     HAL3     0.900000E-01   1.00800           0
      5059 MEMB     37       DOPC     H18T     HAL3     0.900000E-01   1.00800           0
      5060 MEMB     37       DOPC     C33      CTL2    -0.180000       12.0110           0
      5061 MEMB     37       DOPC     H3X      HAL2     0.900000E-01   1.00800           0
      5062 MEMB     37       DOPC     H3Y      HAL2     0.900000E-01   1.00800           0
      5063 MEMB     37       DOPC     C34      CTL2    -0.180000       12.0110           0
      5064 MEMB     37       DOPC     H4X      HAL2     0.900000E-01   1.00800           0
      5065 MEMB     37       DOPC     H4Y      HAL2     0.900000E-01   1.00800           0
      5066 MEMB     37       DOPC     C35      CTL2    -0.180000       12.0110           0
      5067 MEMB     37       DOPC     H5X      HAL2     0.900000E-01   1.00800           0
      5068 MEMB     37       DOPC     H5Y      HAL2     0.900000E-01   1.00800           0
      5069 MEMB     37       DOPC     C36      CTL2    -0.180000       12.0110           0
      5070 MEMB     37       DOPC     H6X      HAL2     0.900000E-01   1.00800           0
      5071 MEMB     37       DOPC     H6Y      HAL2     0.900000E-01   1.00800           0
      5072 MEMB     37       DOPC     C37      CTL2    -0.180000       12.0110           0
      5073 MEMB     37       DOPC     H7X      HAL2     0.900000E-01   1.00800           0
      5074 MEMB     37       DOPC     H7Y      HAL2     0.900000E-01   1.00800           0
      5075 MEMB     37       DOPC     C38      CTL2    -0.180000       12.0110           0
      5076 MEMB     37       DOPC     H8X      HAL2     0.900000E-01   1.00800           0
      5077 MEMB     37       DOPC     H8Y      HAL2     0.900000E-01   1.00800           0
      5078 MEMB     37       DOPC     C39      CEL1    -0.150000       12.0110           0
      5079 MEMB     37       DOPC     H9X      HEL1     0.150000       1.00800           0
      5080 MEMB     37       DOPC     C310     CEL1    -0.150000       12.0110           0
      5081 MEMB     37       DOPC     H10X     HEL1     0.150000       1.00800           0
      5082 MEMB     37       DOPC     C311     CTL2    -0.180000       12.0110           0
      5083 MEMB     37       DOPC     H11X     HAL2     0.900000E-01   1.00800           0
      5084 MEMB     37       DOPC     H11Y     HAL2     0.900000E-01   1.00800           0
      5085 MEMB     37       DOPC     C312     CTL2    -0.180000       12.0110           0
      5086 MEMB     37       DOPC     H12X     HAL2     0.900000E-01   1.00800           0
      5087 MEMB     37       DOPC     H12Y     HAL2     0.900000E-01   1.00800           0
      5088 MEMB     37       DOPC     C313     CTL2    -0.180000       12.0110           0
      5089 MEMB     37       DOPC     H13X     HAL2     0.900000E-01   1.00800           0
      5090 MEMB     37       DOPC     H13Y     HAL2     0.900000E-01   1.00800           0
      5091 MEMB     37       DOPC     C314     CTL2    -0.180000       12.0110           0
      5092 MEMB     37       DOPC     H14X     HAL2     0.900000E-01   1.00800           0
      5093 MEMB     37       DOPC     H14Y     HAL2     0.900000E-01   1.00800           0
      5094 MEMB     37       DOPC     C315     CTL2    -0.180000       12.0110           0
      5095 MEMB     37       DOPC     H15X     HAL2     0.900000E-01   1.00800           0
      5096 MEMB     37       DOPC     H15Y     HAL2     0.900000E-01   1.00800           0
      5097 MEMB     37       DOPC     C316     CTL2    -0.180000       12.0110           0
      5098 MEMB     37       DOPC     H16X     HAL2     0.900000E-01   1.00800           0
      5099 MEMB     37       DOPC     H16Y     HAL2     0.900000E-01   1.00800           0
      5100 MEMB     37       DOPC     C317     CTL2    -0.180000       12.0110           0
      5101 MEMB     37       DOPC     H17X     HAL2     0.900000E-01   1.00800           0
      5102 MEMB     37       DOPC     H17Y     HAL2     0.900000E-01   1.00800           0
      5103 MEMB     37       DOPC     C318     CTL3    -0.270000       12.0110           0
      5104 MEMB     37       DOPC     H18X     HAL3     0.900000E-01   1.00800           0
      5105 MEMB     37       DOPC     H18Y     HAL3     0.900000E-01   1.00800           0
      5106 MEMB     37       DOPC     H18Z     HAL3     0.900000E-01   1.00800           0
      5107 MEMB     38       DOPC     N        NTL     -0.600000       14.0070           0
      5108 MEMB     38       DOPC     C12      CTL2    -0.100000       12.0110           0
      5109 MEMB     38       DOPC     H12A     HL       0.250000       1.00800           0
      5110 MEMB     38       DOPC     H12B     HL       0.250000       1.00800           0
      5111 MEMB     38       DOPC     C13      CTL5    -0.350000       12.0110           0
      5112 MEMB     38       DOPC     H13A     HL       0.250000       1.00800           0
      5113 MEMB     38       DOPC     H13B     HL       0.250000       1.00800           0
      5114 MEMB     38       DOPC     H13C     HL       0.250000       1.00800           0
      5115 MEMB     38       DOPC     C14      CTL5    -0.350000       12.0110           0
      5116 MEMB     38       DOPC     H14A     HL       0.250000       1.00800           0
      5117 MEMB     38       DOPC     H14B     HL       0.250000       1.00800           0
      5118 MEMB     38       DOPC     H14C     HL       0.250000       1.00800           0
      5119 MEMB     38       DOPC     C15      CTL5    -0.350000       12.0110           0
      5120 MEMB     38       DOPC     H15A     HL       0.250000       1.00800           0
      5121 MEMB     38       DOPC     H15B     HL       0.250000       1.00800           0
      5122 MEMB     38       DOPC     H15C     HL       0.250000       1.00800           0
      5123 MEMB     38       DOPC     C11      CTL2    -0.800000E-01   12.0110           0
      5124 MEMB     38       DOPC     H11A     HAL2     0.900000E-01   1.00800           0
      5125 MEMB     38       DOPC     H11B     HAL2     0.900000E-01   1.00800           0
      5126 MEMB     38       DOPC     P        PL        1.50000       30.9740           0
      5127 MEMB     38       DOPC     O13      O2L     -0.780000       15.9994           0
      5128 MEMB     38       DOPC     O14      O2L     -0.780000       15.9994           0
      5129 MEMB     38       DOPC     O12      OSLP    -0.570000       15.9994           0
      5130 MEMB     38       DOPC     O11      OSLP    -0.570000       15.9994           0
      5131 MEMB     38       DOPC     C1       CTL2    -0.800000E-01   12.0110           0
      5132 MEMB     38       DOPC     HA       HAL2     0.900000E-01   1.00800           0
      5133 MEMB     38       DOPC     HB       HAL2     0.900000E-01   1.00800           0
      5134 MEMB     38       DOPC     C2       CTL1     0.170000       12.0110           0
      5135 MEMB     38       DOPC     HS       HAL1     0.900000E-01   1.00800           0
      5136 MEMB     38       DOPC     O21      OSL     -0.490000       15.9994           0
      5137 MEMB     38       DOPC     C21      CL       0.900000       12.0110           0
      5138 MEMB     38       DOPC     O22      OBL     -0.630000       15.9994           0
      5139 MEMB     38       DOPC     C22      CTL2    -0.220000       12.0110           0
      5140 MEMB     38       DOPC     H2R      HAL2     0.900000E-01   1.00800           0
      5141 MEMB     38       DOPC     H2S      HAL2     0.900000E-01   1.00800           0
      5142 MEMB     38       DOPC     C3       CTL2     0.800000E-01   12.0110           0
      5143 MEMB     38       DOPC     HX       HAL2     0.900000E-01   1.00800           0
      5144 MEMB     38       DOPC     HY       HAL2     0.900000E-01   1.00800           0
      5145 MEMB     38       DOPC     O31      OSL     -0.490000       15.9994           0
      5146 MEMB     38       DOPC     C31      CL       0.900000       12.0110           0
      5147 MEMB     38       DOPC     O32      OBL     -0.630000       15.9994           0
      5148 MEMB     38       DOPC     C32      CTL2    -0.220000       12.0110           0
      5149 MEMB     38       DOPC     H2X      HAL2     0.900000E-01   1.00800           0
      5150 MEMB     38       DOPC     H2Y      HAL2     0.900000E-01   1.00800           0
      5151 MEMB     38       DOPC     C23      CTL2    -0.180000       12.0110           0
      5152 MEMB     38       DOPC     H3R      HAL2     0.900000E-01   1.00800           0
      5153 MEMB     38       DOPC     H3S      HAL2     0.900000E-01   1.00800           0
      5154 MEMB     38       DOPC     C24      CTL2    -0.180000       12.0110           0
      5155 MEMB     38       DOPC     H4R      HAL2     0.900000E-01   1.00800           0
      5156 MEMB     38       DOPC     H4S      HAL2     0.900000E-01   1.00800           0
      5157 MEMB     38       DOPC     C25      CTL2    -0.180000       12.0110           0
      5158 MEMB     38       DOPC     H5R      HAL2     0.900000E-01   1.00800           0
      5159 MEMB     38       DOPC     H5S      HAL2     0.900000E-01   1.00800           0
      5160 MEMB     38       DOPC     C26      CTL2    -0.180000       12.0110           0
      5161 MEMB     38       DOPC     H6R      HAL2     0.900000E-01   1.00800           0
      5162 MEMB     38       DOPC     H6S      HAL2     0.900000E-01   1.00800           0
      5163 MEMB     38       DOPC     C27      CTL2    -0.180000       12.0110           0
      5164 MEMB     38       DOPC     H7R      HAL2     0.900000E-01   1.00800           0
      5165 MEMB     38       DOPC     H7S      HAL2     0.900000E-01   1.00800           0
      5166 MEMB     38       DOPC     C28      CTL2    -0.180000       12.0110           0
      5167 MEMB     38       DOPC     H8R      HAL2     0.900000E-01   1.00800           0
      5168 MEMB     38       DOPC     H8S      HAL2     0.900000E-01   1.00800           0
      5169 MEMB     38       DOPC     C29      CEL1    -0.150000       12.0110           0
      5170 MEMB     38       DOPC     H9R      HEL1     0.150000       1.00800           0
      5171 MEMB     38       DOPC     C210     CEL1    -0.150000       12.0110           0
      5172 MEMB     38       DOPC     H10R     HEL1     0.150000       1.00800           0
      5173 MEMB     38       DOPC     C211     CTL2    -0.180000       12.0110           0
      5174 MEMB     38       DOPC     H11R     HAL2     0.900000E-01   1.00800           0
      5175 MEMB     38       DOPC     H11S     HAL2     0.900000E-01   1.00800           0
      5176 MEMB     38       DOPC     C212     CTL2    -0.180000       12.0110           0
      5177 MEMB     38       DOPC     H12R     HAL2     0.900000E-01   1.00800           0
      5178 MEMB     38       DOPC     H12S     HAL2     0.900000E-01   1.00800           0
      5179 MEMB     38       DOPC     C213     CTL2    -0.180000       12.0110           0
      5180 MEMB     38       DOPC     H13R     HAL2     0.900000E-01   1.00800           0
      5181 MEMB     38       DOPC     H13S     HAL2     0.900000E-01   1.00800           0
      5182 MEMB     38       DOPC     C214     CTL2    -0.180000       12.0110           0
      5183 MEMB     38       DOPC     H14R     HAL2     0.900000E-01   1.00800           0
      5184 MEMB     38       DOPC     H14S     HAL2     0.900000E-01   1.00800           0
      5185 MEMB     38       DOPC     C215     CTL2    -0.180000       12.0110           0
      5186 MEMB     38       DOPC     H15R     HAL2     0.900000E-01   1.00800           0
      5187 MEMB     38       DOPC     H15S     HAL2     0.900000E-01   1.00800           0
      5188 MEMB     38       DOPC     C216     CTL2    -0.180000       12.0110           0
      5189 MEMB     38       DOPC     H16R     HAL2     0.900000E-01   1.00800           0
      5190 MEMB     38       DOPC     H16S     HAL2     0.900000E-01   1.00800           0
      5191 MEMB     38       DOPC     C217     CTL2    -0.180000       12.0110           0
      5192 MEMB     38       DOPC     H17R     HAL2     0.900000E-01   1.00800           0
      5193 MEMB     38       DOPC     H17S     HAL2     0.900000E-01   1.00800           0
      5194 MEMB     38       DOPC     C218     CTL3    -0.270000       12.0110           0
      5195 MEMB     38       DOPC     H18R     HAL3     0.900000E-01   1.00800           0
      5196 MEMB     38       DOPC     H18S     HAL3     0.900000E-01   1.00800           0
      5197 MEMB     38       DOPC     H18T     HAL3     0.900000E-01   1.00800           0
      5198 MEMB     38       DOPC     C33      CTL2    -0.180000       12.0110           0
      5199 MEMB     38       DOPC     H3X      HAL2     0.900000E-01   1.00800           0
      5200 MEMB     38       DOPC     H3Y      HAL2     0.900000E-01   1.00800           0
      5201 MEMB     38       DOPC     C34      CTL2    -0.180000       12.0110           0
      5202 MEMB     38       DOPC     H4X      HAL2     0.900000E-01   1.00800           0
      5203 MEMB     38       DOPC     H4Y      HAL2     0.900000E-01   1.00800           0
      5204 MEMB     38       DOPC     C35      CTL2    -0.180000       12.0110           0
      5205 MEMB     38       DOPC     H5X      HAL2     0.900000E-01   1.00800           0
      5206 MEMB     38       DOPC     H5Y      HAL2     0.900000E-01   1.00800           0
      5207 MEMB     38       DOPC     C36      CTL2    -0.180000       12.0110           0
      5208 MEMB     38       DOPC     H6X      HAL2     0.900000E-01   1.00800           0
      5209 MEMB     38       DOPC     H6Y      HAL2     0.900000E-01   1.00800           0
      5210 MEMB     38       DOPC     C37      CTL2    -0.180000       12.0110           0
      5211 MEMB     38       DOPC     H7X      HAL2     0.900000E-01   1.00800           0
      5212 MEMB     38       DOPC     H7Y      HAL2     0.900000E-01   1.00800           0
      5213 MEMB     38       DOPC     C38      CTL2    -0.180000       12.0110           0
      5214 MEMB     38       DOPC     H8X      HAL2     0.900000E-01   1.00800           0
      5215 MEMB     38       DOPC     H8Y      HAL2     0.900000E-01   1.00800           0
      5216 MEMB     38       DOPC     C39      CEL1    -0.150000       12.0110           0
      5217 MEMB     38       DOPC     H9X      HEL1     0.150000       1.00800           0
      5218 MEMB     38       DOPC     C310     CEL1    -0.150000       12.0110           0
      5219 MEMB     38       DOPC     H10X     HEL1     0.150000       1.00800           0
      5220 MEMB     38       DOPC     C311     CTL2    -0.180000       12.0110           0
      5221 MEMB     38       DOPC     H11X     HAL2     0.900000E-01   1.00800           0
      5222 MEMB     38       DOPC     H11Y     HAL2     0.900000E-01   1.00800           0
      5223 MEMB     38       DOPC     C312     CTL2    -0.180000       12.0110           0
      5224 MEMB     38       DOPC     H12X     HAL2     0.900000E-01   1.00800           0
      5225 MEMB     38       DOPC     H12Y     HAL2     0.900000E-01   1.00800           0
      5226 MEMB     38       DOPC     C313     CTL2    -0.180000       12.0110           0
      5227 MEMB     38       DOPC     H13X     HAL2     0.900000E-01   1.00800           0
      5228 MEMB     38       DOPC     H13Y     HAL2     0.900000E-01   1.00800           0
      5229 MEMB     38       DOPC     C314     CTL2    -0.180000       12.0110           0
      5230 MEMB     38       DOPC     H14X     HAL2     0.900000E-01   1.00800           0
      5231 MEMB     38       DOPC     H14Y     HAL2     0.900000E-01   1.00800           0
      5232 MEMB     38       DOPC     C315     CTL2    -0.180000       12.0110           0
      5233 MEMB     38       DOPC     H15X     HAL2     0.900000E-01   1.00800           0
      5234 MEMB     38       DOPC     H15Y     HAL2     0.900000E-01   1.00800           0
      5235 MEMB     38       DOPC     C316     CTL2    -0.180000       12.0110           0
      5236 MEMB     38       DOPC     H16X     HAL2     0.900000E-01   1.00800           0
      5237 MEMB     38       DOPC     H16Y     HAL2     0.900000E-01   1.00800           0
      5238 MEMB     38       DOPC     C317     CTL2    -0.180000       12.0110           0
      5239 MEMB     38       DOPC     H17X     HAL2     0.900000E-01   1.00800           0
      5240 MEMB     38       DOPC     H17Y     HAL2     0.900000E-01   1.00800           0
      5241 MEMB     38       DOPC     C318     CTL3    -0.270000       12.0110           0
      5242 MEMB     38       DOPC     H18X     HAL3     0.900000E-01   1.00800           0
      5243 MEMB     38       DOPC     H18Y     HAL3     0.900000E-01   1.00800           0
      5244 MEMB     38       DOPC     H18Z     HAL3     0.900000E-01   1.00800           0
      5245 MEMB     39       DOPC     N        NTL     -0.600000       14.0070           0
      5246 MEMB     39       DOPC     C12      CTL2    -0.100000       12.0110           0
      5247 MEMB     39       DOPC     H12A     HL       0.250000       1.00800           0
      5248 MEMB     39       DOPC     H12B     HL       0.250000       1.00800           0
      5249 MEMB     39       DOPC     C13      CTL5    -0.350000       12.0110           0
      5250 MEMB     39       DOPC     H13A     HL       0.250000       1.00800           0
      5251 MEMB     39       DOPC     H13B     HL       0.250000       1.00800           0
      5252 MEMB     39       DOPC     H13C     HL       0.250000       1.00800           0
      5253 MEMB     39       DOPC     C14      CTL5    -0.350000       12.0110           0
      5254 MEMB     39       DOPC     H14A     HL       0.250000       1.00800           0
      5255 MEMB     39       DOPC     H14B     HL       0.250000       1.00800           0
      5256 MEMB     39       DOPC     H14C     HL       0.250000       1.00800           0
      5257 MEMB     39       DOPC     C15      CTL5    -0.350000       12.0110           0
      5258 MEMB     39       DOPC     H15A     HL       0.250000       1.00800           0
      5259 MEMB     39       DOPC     H15B     HL       0.250000       1.00800           0
      5260 MEMB     39       DOPC     H15C     HL       0.250000       1.00800           0
      5261 MEMB     39       DOPC     C11      CTL2    -0.800000E-01   12.0110           0
      5262 MEMB     39       DOPC     H11A     HAL2     0.900000E-01   1.00800           0
      5263 MEMB     39       DOPC     H11B     HAL2     0.900000E-01   1.00800           0
      5264 MEMB     39       DOPC     P        PL        1.50000       30.9740           0
      5265 MEMB     39       DOPC     O13      O2L     -0.780000       15.9994           0
      5266 MEMB     39       DOPC     O14      O2L     -0.780000       15.9994           0
      5267 MEMB     39       DOPC     O12      OSLP    -0.570000       15.9994           0
      5268 MEMB     39       DOPC     O11      OSLP    -0.570000       15.9994           0
      5269 MEMB     39       DOPC     C1       CTL2    -0.800000E-01   12.0110           0
      5270 MEMB     39       DOPC     HA       HAL2     0.900000E-01   1.00800           0
      5271 MEMB     39       DOPC     HB       HAL2     0.900000E-01   1.00800           0
      5272 MEMB     39       DOPC     C2       CTL1     0.170000       12.0110           0
      5273 MEMB     39       DOPC     HS       HAL1     0.900000E-01   1.00800           0
      5274 MEMB     39       DOPC     O21      OSL     -0.490000       15.9994           0
      5275 MEMB     39       DOPC     C21      CL       0.900000       12.0110           0
      5276 MEMB     39       DOPC     O22      OBL     -0.630000       15.9994           0
      5277 MEMB     39       DOPC     C22      CTL2    -0.220000       12.0110           0
      5278 MEMB     39       DOPC     H2R      HAL2     0.900000E-01   1.00800           0
      5279 MEMB     39       DOPC     H2S      HAL2     0.900000E-01   1.00800           0
      5280 MEMB     39       DOPC     C3       CTL2     0.800000E-01   12.0110           0
      5281 MEMB     39       DOPC     HX       HAL2     0.900000E-01   1.00800           0
      5282 MEMB     39       DOPC     HY       HAL2     0.900000E-01   1.00800           0
      5283 MEMB     39       DOPC     O31      OSL     -0.490000       15.9994           0
      5284 MEMB     39       DOPC     C31      CL       0.900000       12.0110           0
      5285 MEMB     39       DOPC     O32      OBL     -0.630000       15.9994           0
      5286 MEMB     39       DOPC     C32      CTL2    -0.220000       12.0110           0
      5287 MEMB     39       DOPC     H2X      HAL2     0.900000E-01   1.00800           0
      5288 MEMB     39       DOPC     H2Y      HAL2     0.900000E-01   1.00800           0
      5289 MEMB     39       DOPC     C23      CTL2    -0.180000       12.0110           0
      5290 MEMB     39       DOPC     H3R      HAL2     0.900000E-01   1.00800           0
      5291 MEMB     39       DOPC     H3S      HAL2     0.900000E-01   1.00800           0
      5292 MEMB     39       DOPC     C24      CTL2    -0.180000       12.0110           0
      5293 MEMB     39       DOPC     H4R      HAL2     0.900000E-01   1.00800           0
      5294 MEMB     39       DOPC     H4S      HAL2     0.900000E-01   1.00800           0
      5295 MEMB     39       DOPC     C25      CTL2    -0.180000       12.0110           0
      5296 MEMB     39       DOPC     H5R      HAL2     0.900000E-01   1.00800           0
      5297 MEMB     39       DOPC     H5S      HAL2     0.900000E-01   1.00800           0
      5298 MEMB     39       DOPC     C26      CTL2    -0.180000       12.0110           0
      5299 MEMB     39       DOPC     H6R      HAL2     0.900000E-01   1.00800           0
      5300 MEMB     39       DOPC     H6S      HAL2     0.900000E-01   1.00800           0
      5301 MEMB     39       DOPC     C27      CTL2    -0.180000       12.0110           0
      5302 MEMB     39       DOPC     H7R      HAL2     0.900000E-01   1.00800           0
      5303 MEMB     39       DOPC     H7S      HAL2     0.900000E-01   1.00800           0
      5304 MEMB     39       DOPC     C28      CTL2    -0.180000       12.0110           0
      5305 MEMB     39       DOPC     H8R      HAL2     0.900000E-01   1.00800           0
      5306 MEMB     39       DOPC     H8S      HAL2     0.900000E-01   1.00800           0
      5307 MEMB     39       DOPC     C29      CEL1    -0.150000       12.0110           0
      5308 MEMB     39       DOPC     H9R      HEL1     0.150000       1.00800           0
      5309 MEMB     39       DOPC     C210     CEL1    -0.150000       12.0110           0
      5310 MEMB     39       DOPC     H10R     HEL1     0.150000       1.00800           0
      5311 MEMB     39       DOPC     C211     CTL2    -0.180000       12.0110           0
      5312 MEMB     39       DOPC     H11R     HAL2     0.900000E-01   1.00800           0
      5313 MEMB     39       DOPC     H11S     HAL2     0.900000E-01   1.00800           0
      5314 MEMB     39       DOPC     C212     CTL2    -0.180000       12.0110           0
      5315 MEMB     39       DOPC     H12R     HAL2     0.900000E-01   1.00800           0
      5316 MEMB     39       DOPC     H12S     HAL2     0.900000E-01   1.00800           0
      5317 MEMB     39       DOPC     C213     CTL2    -0.180000       12.0110           0
      5318 MEMB     39       DOPC     H13R     HAL2     0.900000E-01   1.00800           0
      5319 MEMB     39       DOPC     H13S     HAL2     0.900000E-01   1.00800           0
      5320 MEMB     39       DOPC     C214     CTL2    -0.180000       12.0110           0
      5321 MEMB     39       DOPC     H14R     HAL2     0.900000E-01   1.00800           0
      5322 MEMB     39       DOPC     H14S     HAL2     0.900000E-01   1.00800           0
      5323 MEMB     39       DOPC     C215     CTL2    -0.180000       12.0110           0
      5324 MEMB     39       DOPC     H15R     HAL2     0.900000E-01   1.00800           0
      5325 MEMB     39       DOPC     H15S     HAL2     0.900000E-01   1.00800           0
      5326 MEMB     39       DOPC     C216     CTL2    -0.180000       12.0110           0
      5327 MEMB     39       DOPC     H16R     HAL2     0.900000E-01   1.00800           0
      5328 MEMB     39       DOPC     H16S     HAL2     0.900000E-01   1.00800           0
      5329 MEMB     39       DOPC     C217     CTL2    -0.180000       12.0110           0
      5330 MEMB     39       DOPC     H17R     HAL2     0.900000E-01   1.00800           0
      5331 MEMB     39       DOPC     H17S     HAL2     0.900000E-01   1.00800           0
      5332 MEMB     39       DOPC     C218     CTL3    -0.270000       12.0110           0
      5333 MEMB     39       DOPC     H18R     HAL3     0.900000E-01   1.00800           0
      5334 MEMB     39       DOPC     H18S     HAL3     0.900000E-01   1.00800           0
      5335 MEMB     39       DOPC     H18T     HAL3     0.900000E-01   1.00800           0
      5336 MEMB     39       DOPC     C33      CTL2    -0.180000       12.0110           0
      5337 MEMB     39       DOPC     H3X      HAL2     0.900000E-01   1.00800           0
      5338 MEMB     39       DOPC     H3Y      HAL2     0.900000E-01   1.00800           0
      5339 MEMB     39       DOPC     C34      CTL2    -0.180000       12.0110           0
      5340 MEMB     39       DOPC     H4X      HAL2     0.900000E-01   1.00800           0
      5341 MEMB     39       DOPC     H4Y      HAL2     0.900000E-01   1.00800           0
      5342 MEMB     39       DOPC     C35      CTL2    -0.180000       12.0110           0
      5343 MEMB     39       DOPC     H5X      HAL2     0.900000E-01   1.00800           0
      5344 MEMB     39       DOPC     H5Y      HAL2     0.900000E-01   1.00800           0
      5345 MEMB     39       DOPC     C36      CTL2    -0.180000       12.0110           0
      5346 MEMB     39       DOPC     H6X      HAL2     0.900000E-01   1.00800           0
      5347 MEMB     39       DOPC     H6Y      HAL2     0.900000E-01   1.00800           0
      5348 MEMB     39       DOPC     C37      CTL2    -0.180000       12.0110           0
      5349 MEMB     39       DOPC     H7X      HAL2     0.900000E-01   1.00800           0
      5350 MEMB     39       DOPC     H7Y      HAL2     0.900000E-01   1.00800           0
      5351 MEMB     39       DOPC     C38      CTL2    -0.180000       12.0110           0
      5352 MEMB     39       DOPC     H8X      HAL2     0.900000E-01   1.00800           0
      5353 MEMB     39       DOPC     H8Y      HAL2     0.900000E-01   1.00800           0
      5354 MEMB     39       DOPC     C39      CEL1    -0.150000       12.0110           0
      5355 MEMB     39       DOPC     H9X      HEL1     0.150000       1.00800           0
      5356 MEMB     39       DOPC     C310     CEL1    -0.150000       12.0110           0
      5357 MEMB     39       DOPC     H10X     HEL1     0.150000       1.00800           0
      5358 MEMB     39       DOPC     C311     CTL2    -0.180000       12.0110           0
      5359 MEMB     39       DOPC     H11X     HAL2     0.900000E-01   1.00800           0
      5360 MEMB     39       DOPC     H11Y     HAL2     0.900000E-01   1.00800           0
      5361 MEMB     39       DOPC     C312     CTL2    -0.180000       12.0110           0
      5362 MEMB     39       DOPC     H12X     HAL2     0.900000E-01   1.00800           0
      5363 MEMB     39       DOPC     H12Y     HAL2     0.900000E-01   1.00800           0
      5364 MEMB     39       DOPC     C313     CTL2    -0.180000       12.0110           0
      5365 MEMB     39       DOPC     H13X     HAL2     0.900000E-01   1.00800           0
      5366 MEMB     39       DOPC     H13Y     HAL2     0.900000E-01   1.00800           0
      5367 MEMB     39       DOPC     C314     CTL2    -0.180000       12.0110           0
      5368 MEMB     39       DOPC     H14X     HAL2     0.900000E-01   1.00800           0
      5369 MEMB     39       DOPC     H14Y     HAL2     0.900000E-01   1.00800           0
      5370 MEMB     39       DOPC     C315     CTL2    -0.180000       12.0110           0
      5371 MEMB     39       DOPC     H15X     HAL2     0.900000E-01   1.00800           0
      5372 MEMB     39       DOPC     H15Y     HAL2     0.900000E-01   1.00800           0
      5373 MEMB     39       DOPC     C316     CTL2    -0.180000       12.0110           0
      5374 MEMB     39       DOPC     H16X     HAL2     0.900000E-01   1.00800           0
      5375 MEMB     39       DOPC     H16Y     HAL2     0.900000E-01   1.00800           0
      5376 MEMB     39       DOPC     C317     CTL2    -0.180000       12.0110           0
      5377 MEMB     39       DOPC     H17X     HAL2     0.900000E-01   1.00800           0
      5378 MEMB     39       DOPC     H17Y     HAL2     0.900000E-01   1.00800           0
      5379 MEMB     39       DOPC     C318     CTL3    -0.270000       12.0110           0
      5380 MEMB     39       DOPC     H18X     HAL3     0.900000E-01   1.00800           0
      5381 MEMB     39       DOPC     H18Y     HAL3     0.900000E-01   1.00800           0
      5382 MEMB     39       DOPC     H18Z     HAL3     0.900000E-01   1.00800           0
      5383 MEMB     40       DOPC     N        NTL     -0.600000       14.0070           0
      5384 MEMB     40       DOPC     C12      CTL2    -0.100000       12.0110           0
      5385 MEMB     40       DOPC     H12A     HL       0.250000       1.00800           0
      5386 MEMB     40       DOPC     H12B     HL       0.250000       1.00800           0
      5387 MEMB     40       DOPC     C13      CTL5    -0.350000       12.0110           0
      5388 MEMB     40       DOPC     H13A     HL       0.250000       1.00800           0
      5389 MEMB     40       DOPC     H13B     HL       0.250000       1.00800           0
      5390 MEMB     40       DOPC     H13C     HL       0.250000       1.00800           0
      5391 MEMB     40       DOPC     C14      CTL5    -0.350000       12.0110           0
      5392 MEMB     40       DOPC     H14A     HL       0.250000       1.00800           0
      5393 MEMB     40       DOPC     H14B     HL       0.250000       1.00800           0
      5394 MEMB     40       DOPC     H14C     HL       0.250000       1.00800           0
      5395 MEMB     40       DOPC     C15      CTL5    -0.350000       12.0110           0
      5396 MEMB     40       DOPC     H15A     HL       0.250000       1.00800           0
      5397 MEMB     40       DOPC     H15B     HL       0.250000       1.00800           0
      5398 MEMB     40       DOPC     H15C     HL       0.250000       1.00800           0
      5399 MEMB     40       DOPC     C11      CTL2    -0.800000E-01   12.0110           0
      5400 MEMB     40       DOPC     H11A     HAL2     0.900000E-01   1.00800           0
      5401 MEMB     40       DOPC     H11B     HAL2     0.900000E-01   1.00800           0
      5402 MEMB     40       DOPC     P        PL        1.50000       30.9740           0
      5403 MEMB     40       DOPC     O13      O2L     -0.780000       15.9994           0
      5404 MEMB     40       DOPC     O14      O2L     -0.780000       15.9994           0
      5405 MEMB     40       DOPC     O12      OSLP    -0.570000       15.9994           0
      5406 MEMB     40       DOPC     O11      OSLP    -0.570000       15.9994           0
      5407 MEMB     40       DOPC     C1       CTL2    -0.800000E-01   12.0110           0
      5408 MEMB     40       DOPC     HA       HAL2     0.900000E-01   1.00800           0
      5409 MEMB     40       DOPC     HB       HAL2     0.900000E-01   1.00800           0
      5410 MEMB     40       DOPC     C2       CTL1     0.170000       12.0110           0
      5411 MEMB     40       DOPC     HS       HAL1     0.900000E-01   1.00800           0
      5412 MEMB     40       DOPC     O21      OSL     -0.490000       15.9994           0
      5413 MEMB     40       DOPC     C21      CL       0.900000       12.0110           0
      5414 MEMB     40       DOPC     O22      OBL     -0.630000       15.9994           0
      5415 MEMB     40       DOPC     C22      CTL2    -0.220000       12.0110           0
      5416 MEMB     40       DOPC     H2R      HAL2     0.900000E-01   1.00800           0
      5417 MEMB     40       DOPC     H2S      HAL2     0.900000E-01   1.00800           0
      5418 MEMB     40       DOPC     C3       CTL2     0.800000E-01   12.0110           0
      5419 MEMB     40       DOPC     HX       HAL2     0.900000E-01   1.00800           0
      5420 MEMB     40       DOPC     HY       HAL2     0.900000E-01   1.00800           0
      5421 MEMB     40       DOPC     O31      OSL     -0.490000       15.9994           0
      5422 MEMB     40       DOPC     C31      CL       0.900000       12.0110           0
      5423 MEMB     40       DOPC     O32      OBL     -0.630000       15.9994           0
      5424 MEMB     40       DOPC     C32      CTL2    -0.220000       12.0110           0
      5425 MEMB     40       DOPC     H2X      HAL2     0.900000E-01   1.00800           0
      5426 MEMB     40       DOPC     H2Y      HAL2     0.900000E-01   1.00800           0
      5427 MEMB     40       DOPC     C23      CTL2    -0.180000       12.0110           0
      5428 MEMB     40       DOPC     H3R      HAL2     0.900000E-01   1.00800           0
      5429 MEMB     40       DOPC     H3S      HAL2     0.900000E-01   1.00800           0
      5430 MEMB     40       DOPC     C24      CTL2    -0.180000       12.0110           0
      5431 MEMB     40       DOPC     H4R      HAL2     0.900000E-01   1.00800           0
      5432 MEMB     40       DOPC     H4S      HAL2     0.900000E-01   1.00800           0
      5433 MEMB     40       DOPC     C25      CTL2    -0.180000       12.0110           0
      5434 MEMB     40       DOPC     H5R      HAL2     0.900000E-01   1.00800           0
      5435 MEMB     40       DOPC     H5S      HAL2     0.900000E-01   1.00800           0
      5436 MEMB     40       DOPC     C26      CTL2    -0.180000       12.0110           0
      5437 MEMB     40       DOPC     H6R      HAL2     0.900000E-01   1.00800           0
      5438 MEMB     40       DOPC     H6S      HAL2     0.900000E-01   1.00800           0
      5439 MEMB     40       DOPC     C27      CTL2    -0.180000       12.0110           0
      5440 MEMB     40       DOPC     H7R      HAL2     0.900000E-01   1.00800           0
      5441 MEMB     40       DOPC     H7S      HAL2     0.900000E-01   1.00800           0
      5442 MEMB     40       DOPC     C28      CTL2    -0.180000       12.0110           0
      5443 MEMB     40       DOPC     H8R      HAL2     0.900000E-01   1.00800           0
      5444 MEMB     40       DOPC     H8S      HAL2     0.900000E-01   1.00800           0
      5445 MEMB     40       DOPC     C29      CEL1    -0.150000       12.0110           0
      5446 MEMB     40       DOPC     H9R      HEL1     0.150000       1.00800           0
      5447 MEMB     40       DOPC     C210     CEL1    -0.150000       12.0110           0
      5448 MEMB     40       DOPC     H10R     HEL1     0.150000       1.00800           0
      5449 MEMB     40       DOPC     C211     CTL2    -0.180000       12.0110           0
      5450 MEMB     40       DOPC     H11R     HAL2     0.900000E-01   1.00800           0
      5451 MEMB     40       DOPC     H11S     HAL2     0.900000E-01   1.00800           0
      5452 MEMB     40       DOPC     C212     CTL2    -0.180000       12.0110           0
      5453 MEMB     40       DOPC     H12R     HAL2     0.900000E-01   1.00800           0
      5454 MEMB     40       DOPC     H12S     HAL2     0.900000E-01   1.00800           0
      5455 MEMB     40       DOPC     C213     CTL2    -0.180000       12.0110           0
      5456 MEMB     40       DOPC     H13R     HAL2     0.900000E-01   1.00800           0
      5457 MEMB     40       DOPC     H13S     HAL2     0.900000E-01   1.00800           0
      5458 MEMB     40       DOPC     C214     CTL2    -0.180000       12.0110           0
      5459 MEMB     40       DOPC     H14R     HAL2     0.900000E-01   1.00800           0
      5460 MEMB     40       DOPC     H14S     HAL2     0.900000E-01   1.00800           0
      5461 MEMB     40       DOPC     C215     CTL2    -0.180000       12.0110           0
      5462 MEMB     40       DOPC     H15R     HAL2     0.900000E-01   1.00800           0
      5463 MEMB     40       DOPC     H15S     HAL2     0.900000E-01   1.00800           0
      5464 MEMB     40       DOPC     C216     CTL2    -0.180000       12.0110           0
      5465 MEMB     40       DOPC     H16R     HAL2     0.900000E-01   1.00800           0
      5466 MEMB     40       DOPC     H16S     HAL2     0.900000E-01   1.00800           0
      5467 MEMB     40       DOPC     C217     CTL2    -0.180000       12.0110           0
      5468 MEMB     40       DOPC     H17R     HAL2     0.900000E-01   1.00800           0
      5469 MEMB     40       DOPC     H17S     HAL2     0.900000E-01   1.00800           0
      5470 MEMB     40       DOPC     C218     CTL3    -0.270000       12.0110           0
      5471 MEMB     40       DOPC     H18R     HAL3     0.900000E-01   1.00800           0
      5472 MEMB     40       DOPC     H18S     HAL3     0.900000E-01   1.00800           0
      5473 MEMB     40       DOPC     H18T     HAL3     0.900000E-01   1.00800           0
      5474 MEMB     40       DOPC     C33      CTL2    -0.180000       12.0110           0
      5475 MEMB     40       DOPC     H3X      HAL2     0.900000E-01   1.00800           0
      5476 MEMB     40       DOPC     H3Y      HAL2     0.900000E-01   1.00800           0
      5477 MEMB     40       DOPC     C34      CTL2    -0.180000       12.0110           0
      5478 MEMB     40       DOPC     H4X      HAL2     0.900000E-01   1.00800           0
      5479 MEMB     40       DOPC     H4Y      HAL2     0.900000E-01   1.00800           0
      5480 MEMB     40       DOPC     C35      CTL2    -0.180000       12.0110           0
      5481 MEMB     40       DOPC     H5X      HAL2     0.900000E-01   1.00800           0
      5482 MEMB     40       DOPC     H5Y      HAL2     0.900000E-01   1.00800           0
      5483 MEMB     40       DOPC     C36      CTL2    -0.180000       12.0110           0
      5484 MEMB     40       DOPC     H6X      HAL2     0.900000E-01   1.00800           0
      5485 MEMB     40       DOPC     H6Y      HAL2     0.900000E-01   1.00800           0
      5486 MEMB     40       DOPC     C37      CTL2    -0.180000       12.0110           0
      5487 MEMB     40       DOPC     H7X      HAL2     0.900000E-01   1.00800           0
      5488 MEMB     40       DOPC     H7Y      HAL2     0.900000E-01   1.00800           0
      5489 MEMB     40       DOPC     C38      CTL2    -0.180000       12.0110           0
      5490 MEMB     40       DOPC     H8X      HAL2     0.900000E-01   1.00800           0
      5491 MEMB     40       DOPC     H8Y      HAL2     0.900000E-01   1.00800           0
      5492 MEMB     40       DOPC     C39      CEL1    -0.150000       12.0110           0
      5493 MEMB     40       DOPC     H9X      HEL1     0.150000       1.00800           0
      5494 MEMB     40       DOPC     C310     CEL1    -0.150000       12.0110           0
      5495 MEMB     40       DOPC     H10X     HEL1     0.150000       1.00800           0
      5496 MEMB     40       DOPC     C311     CTL2    -0.180000       12.0110           0
      5497 MEMB     40       DOPC     H11X     HAL2     0.900000E-01   1.00800           0
      5498 MEMB     40       DOPC     H11Y     HAL2     0.900000E-01   1.00800           0
      5499 MEMB     40       DOPC     C312     CTL2    -0.180000       12.0110           0
      5500 MEMB     40       DOPC     H12X     HAL2     0.900000E-01   1.00800           0
      5501 MEMB     40       DOPC     H12Y     HAL2     0.900000E-01   1.00800           0
      5502 MEMB     40       DOPC     C313     CTL2    -0.180000       12.0110           0
      5503 MEMB     40       DOPC     H13X     HAL2     0.900000E-01   1.00800           0
      5504 MEMB     40       DOPC     H13Y     HAL2     0.900000E-01   1.00800           0
      5505 MEMB     40       DOPC     C314     CTL2    -0.180000       12.0110           0
      5506 MEMB     40       DOPC     H14X     HAL2     0.900000E-01   1.00800           0
      5507 MEMB     40       DOPC     H14Y     HAL2     0.900000E-01   1.00800           0
      5508 MEMB     40       DOPC     C315     CTL2    -0.180000       12.0110           0
      5509 MEMB     40       DOPC     H15X     HAL2     0.900000E-01   1.00800           0
      5510 MEMB     40       DOPC     H15Y     HAL2     0.900000E-01   1.00800           0
      5511 MEMB     40       DOPC     C316     CTL2    -0.180000       12.0110           0
      5512 MEMB     40       DOPC     H16X     HAL2     0.900000E-01   1.00800           0
      5513 MEMB     40       DOPC     H16Y     HAL2     0.900000E-01   1.00800           0
      5514 MEMB     40       DOPC     C317     CTL2    -0.180000       12.0110           0
      5515 MEMB     40       DOPC     H17X     HAL2     0.900000E-01   1.00800           0
      5516 MEMB     40       DOPC     H17Y     HAL2     0.900000E-01   1.00800           0
      5517 MEMB     40       DOPC     C318     CTL3    -0.270000       12.0110           0
      5518 MEMB     40       DOPC     H18X     HAL3     0.900000E-01   1.00800           0
      5519 MEMB     40       DOPC     H18Y     HAL3     0.900000E-01   1.00800           0
      5520 MEMB     40       DOPC     H18Z     HAL3     0.900000E-01   1.00800           0
      5521 MEMB     41       DOPC     N        NTL     -0.600000       14.0070           0
      5522 MEMB     41       DOPC     C12      CTL2    -0.100000       12.0110           0
      5523 MEMB     41       DOPC     H12A     HL       0.250000       1.00800           0
      5524 MEMB     41       DOPC     H12B     HL       0.250000       1.00800           0
      5525 MEMB     41       DOPC     C13      CTL5    -0.350000       12.0110           0
      5526 MEMB     41       DOPC     H13A     HL       0.250000       1.00800           0
      5527 MEMB     41       DOPC     H13B     HL       0.250000       1.00800           0
      5528 MEMB     41       DOPC     H13C     HL       0.250000       1.00800           0
      5529 MEMB     41       DOPC     C14      CTL5    -0.350000       12.0110           0
      5530 MEMB     41       DOPC     H14A     HL       0.250000       1.00800           0
      5531 MEMB     41       DOPC     H14B     HL       0.250000       1.00800           0
      5532 MEMB     41       DOPC     H14C     HL       0.250000       1.00800           0
      5533 MEMB     41       DOPC     C15      CTL5    -0.350000       12.0110           0
      5534 MEMB     41       DOPC     H15A     HL       0.250000       1.00800           0
      5535 MEMB     41       DOPC     H15B     HL       0.250000       1.00800           0
      5536 MEMB     41       DOPC     H15C     HL       0.250000       1.00800           0
      5537 MEMB     41       DOPC     C11      CTL2    -0.800000E-01   12.0110           0
      5538 MEMB     41       DOPC     H11A     HAL2     0.900000E-01   1.00800           0
      5539 MEMB     41       DOPC     H11B     HAL2     0.900000E-01   1.00800           0
      5540 MEMB     41       DOPC     P        PL        1.50000       30.9740           0
      5541 MEMB     41       DOPC     O13      O2L     -0.780000       15.9994           0
      5542 MEMB     41       DOPC     O14      O2L     -0.780000       15.9994           0
      5543 MEMB     41       DOPC     O12      OSLP    -0.570000       15.9994           0
      5544 MEMB     41       DOPC     O11      OSLP    -0.570000       15.9994           0
      5545 MEMB     41       DOPC     C1       CTL2    -0.800000E-01   12.0110           0
      5546 MEMB     41       DOPC     HA       HAL2     0.900000E-01   1.00800           0
      5547 MEMB     41       DOPC     HB       HAL2     0.900000E-01   1.00800           0
      5548 MEMB     41       DOPC     C2       CTL1     0.170000       12.0110           0
      5549 MEMB     41       DOPC     HS       HAL1     0.900000E-01   1.00800           0
      5550 MEMB     41       DOPC     O21      OSL     -0.490000       15.9994           0
      5551 MEMB     41       DOPC     C21      CL       0.900000       12.0110           0
      5552 MEMB     41       DOPC     O22      OBL     -0.630000       15.9994           0
      5553 MEMB     41       DOPC     C22      CTL2    -0.220000       12.0110           0
      5554 MEMB     41       DOPC     H2R      HAL2     0.900000E-01   1.00800           0
      5555 MEMB     41       DOPC     H2S      HAL2     0.900000E-01   1.00800           0
      5556 MEMB     41       DOPC     C3       CTL2     0.800000E-01   12.0110           0
      5557 MEMB     41       DOPC     HX       HAL2     0.900000E-01   1.00800           0
      5558 MEMB     41       DOPC     HY       HAL2     0.900000E-01   1.00800           0
      5559 MEMB     41       DOPC     O31      OSL     -0.490000       15.9994           0
      5560 MEMB     41       DOPC     C31      CL       0.900000       12.0110           0
      5561 MEMB     41       DOPC     O32      OBL     -0.630000       15.9994           0
      5562 MEMB     41       DOPC     C32      CTL2    -0.220000       12.0110           0
      5563 MEMB     41       DOPC     H2X      HAL2     0.900000E-01   1.00800           0
      5564 MEMB     41       DOPC     H2Y      HAL2     0.900000E-01   1.00800           0
      5565 MEMB     41       DOPC     C23      CTL2    -0.180000       12.0110           0
      5566 MEMB     41       DOPC     H3R      HAL2     0.900000E-01   1.00800           0
      5567 MEMB     41       DOPC     H3S      HAL2     0.900000E-01   1.00800           0
      5568 MEMB     41       DOPC     C24      CTL2    -0.180000       12.0110           0
      5569 MEMB     41       DOPC     H4R      HAL2     0.900000E-01   1.00800           0
      5570 MEMB     41       DOPC     H4S      HAL2     0.900000E-01   1.00800           0
      5571 MEMB     41       DOPC     C25      CTL2    -0.180000       12.0110           0
      5572 MEMB     41       DOPC     H5R      HAL2     0.900000E-01   1.00800           0
      5573 MEMB     41       DOPC     H5S      HAL2     0.900000E-01   1.00800           0
      5574 MEMB     41       DOPC     C26      CTL2    -0.180000       12.0110           0
      5575 MEMB     41       DOPC     H6R      HAL2     0.900000E-01   1.00800           0
      5576 MEMB     41       DOPC     H6S      HAL2     0.900000E-01   1.00800           0
      5577 MEMB     41       DOPC     C27      CTL2    -0.180000       12.0110           0
      5578 MEMB     41       DOPC     H7R      HAL2     0.900000E-01   1.00800           0
      5579 MEMB     41       DOPC     H7S      HAL2     0.900000E-01   1.00800           0
      5580 MEMB     41       DOPC     C28      CTL2    -0.180000       12.0110           0
      5581 MEMB     41       DOPC     H8R      HAL2     0.900000E-01   1.00800           0
      5582 MEMB     41       DOPC     H8S      HAL2     0.900000E-01   1.00800           0
      5583 MEMB     41       DOPC     C29      CEL1    -0.150000       12.0110           0
      5584 MEMB     41       DOPC     H9R      HEL1     0.150000       1.00800           0
      5585 MEMB     41       DOPC     C210     CEL1    -0.150000       12.0110           0
      5586 MEMB     41       DOPC     H10R     HEL1     0.150000       1.00800           0
      5587 MEMB     41       DOPC     C211     CTL2    -0.180000       12.0110           0
      5588 MEMB     41       DOPC     H11R     HAL2     0.900000E-01   1.00800           0
      5589 MEMB     41       DOPC     H11S     HAL2     0.900000E-01   1.00800           0
      5590 MEMB     41       DOPC     C212     CTL2    -0.180000       12.0110           0
      5591 MEMB     41       DOPC     H12R     HAL2     0.900000E-01   1.00800           0
      5592 MEMB     41       DOPC     H12S     HAL2     0.900000E-01   1.00800           0
      5593 MEMB     41       DOPC     C213     CTL2    -0.180000       12.0110           0
      5594 MEMB     41       DOPC     H13R     HAL2     0.900000E-01   1.00800           0
      5595 MEMB     41       DOPC     H13S     HAL2     0.900000E-01   1.00800           0
      5596 MEMB     41       DOPC     C214     CTL2    -0.180000       12.0110           0
      5597 MEMB     41       DOPC     H14R     HAL2     0.900000E-01   1.00800           0
      5598 MEMB     41       DOPC     H14S     HAL2     0.900000E-01   1.00800           0
      5599 MEMB     41       DOPC     C215     CTL2    -0.180000       12.0110           0
      5600 MEMB     41       DOPC     H15R     HAL2     0.900000E-01   1.00800           0
      5601 MEMB     41       DOPC     H15S     HAL2     0.900000E-01   1.00800           0
      5602 MEMB     41       DOPC     C216     CTL2    -0.180000       12.0110           0
      5603 MEMB     41       DOPC     H16R     HAL2     0.900000E-01   1.00800           0
      5604 MEMB     41       DOPC     H16S     HAL2     0.900000E-01   1.00800           0
      5605 MEMB     41       DOPC     C217     CTL2    -0.180000       12.0110           0
      5606 MEMB     41       DOPC     H17R     HAL2     0.900000E-01   1.00800           0
      5607 MEMB     41       DOPC     H17S     HAL2     0.900000E-01   1.00800           0
      5608 MEMB     41       DOPC     C218     CTL3    -0.270000       12.0110           0
      5609 MEMB     41       DOPC     H18R     HAL3     0.900000E-01   1.00800           0
      5610 MEMB     41       DOPC     H18S     HAL3     0.900000E-01   1.00800           0
      5611 MEMB     41       DOPC     H18T     HAL3     0.900000E-01   1.00800           0
      5612 MEMB     41       DOPC     C33      CTL2    -0.180000       12.0110           0
      5613 MEMB     41       DOPC     H3X      HAL2     0.900000E-01   1.00800           0
      5614 MEMB     41       DOPC     H3Y      HAL2     0.900000E-01   1.00800           0
      5615 MEMB     41       DOPC     C34      CTL2    -0.180000       12.0110           0
      5616 MEMB     41       DOPC     H4X      HAL2     0.900000E-01   1.00800           0
      5617 MEMB     41       DOPC     H4Y      HAL2     0.900000E-01   1.00800           0
      5618 MEMB     41       DOPC     C35      CTL2    -0.180000       12.0110           0
      5619 MEMB     41       DOPC     H5X      HAL2     0.900000E-01   1.00800           0
      5620 MEMB     41       DOPC     H5Y      HAL2     0.900000E-01   1.00800           0
      5621 MEMB     41       DOPC     C36      CTL2    -0.180000       12.0110           0
      5622 MEMB     41       DOPC     H6X      HAL2     0.900000E-01   1.00800           0
      5623 MEMB     41       DOPC     H6Y      HAL2     0.900000E-01   1.00800           0
      5624 MEMB     41       DOPC     C37      CTL2    -0.180000       12.0110           0
      5625 MEMB     41       DOPC     H7X      HAL2     0.900000E-01   1.00800           0
      5626 MEMB     41       DOPC     H7Y      HAL2     0.900000E-01   1.00800           0
      5627 MEMB     41       DOPC     C38      CTL2    -0.180000       12.0110           0
      5628 MEMB     41       DOPC     H8X      HAL2     0.900000E-01   1.00800           0
      5629 MEMB     41       DOPC     H8Y      HAL2     0.900000E-01   1.00800           0
      5630 MEMB     41       DOPC     C39      CEL1    -0.150000       12.0110           0
      5631 MEMB     41       DOPC     H9X      HEL1     0.150000       1.00800           0
      5632 MEMB     41       DOPC     C310     CEL1    -0.150000       12.0110           0
      5633 MEMB     41       DOPC     H10X     HEL1     0.150000       1.00800           0
      5634 MEMB     41       DOPC     C311     CTL2    -0.180000       12.0110           0
      5635 MEMB     41       DOPC     H11X     HAL2     0.900000E-01   1.00800           0
      5636 MEMB     41       DOPC     H11Y     HAL2     0.900000E-01   1.00800           0
      5637 MEMB     41       DOPC     C312     CTL2    -0.180000       12.0110           0
      5638 MEMB     41       DOPC     H12X     HAL2     0.900000E-01   1.00800           0
      5639 MEMB     41       DOPC     H12Y     HAL2     0.900000E-01   1.00800           0
      5640 MEMB     41       DOPC     C313     CTL2    -0.180000       12.0110           0
      5641 MEMB     41       DOPC     H13X     HAL2     0.900000E-01   1.00800           0
      5642 MEMB     41       DOPC     H13Y     HAL2     0.900000E-01   1.00800           0
      5643 MEMB     41       DOPC     C314     CTL2    -0.180000       12.0110           0
      5644 MEMB     41       DOPC     H14X     HAL2     0.900000E-01   1.00800           0
      5645 MEMB     41       DOPC     H14Y     HAL2     0.900000E-01   1.00800           0
      5646 MEMB     41       DOPC     C315     CTL2    -0.180000       12.0110           0
      5647 MEMB     41       DOPC     H15X     HAL2     0.900000E-01   1.00800           0
      5648 MEMB     41       DOPC     H15Y     HAL2     0.900000E-01   1.00800           0
      5649 MEMB     41       DOPC     C316     CTL2    -0.180000       12.0110           0
      5650 MEMB     41       DOPC     H16X     HAL2     0.900000E-01   1.00800           0
      5651 MEMB     41       DOPC     H16Y     HAL2     0.900000E-01   1.00800           0
      5652 MEMB     41       DOPC     C317     CTL2    -0.180000       12.0110           0
      5653 MEMB     41       DOPC     H17X     HAL2     0.900000E-01   1.00800           0
      5654 MEMB     41       DOPC     H17Y     HAL2     0.900000E-01   1.00800           0
      5655 MEMB     41       DOPC     C318     CTL3    -0.270000       12.0110           0
      5656 MEMB     41       DOPC     H18X     HAL3     0.900000E-01   1.00800           0
      5657 MEMB     41       DOPC     H18Y     HAL3     0.900000E-01   1.00800           0
      5658 MEMB     41       DOPC     H18Z     HAL3     0.900000E-01   1.00800           0
      5659 MEMB     42       DOPC     N        NTL     -0.600000       14.0070           0
      5660 MEMB     42       DOPC     C12      CTL2    -0.100000       12.0110           0
      5661 MEMB     42       DOPC     H12A     HL       0.250000       1.00800           0
      5662 MEMB     42       DOPC     H12B     HL       0.250000       1.00800           0
      5663 MEMB     42       DOPC     C13      CTL5    -0.350000       12.0110           0
      5664 MEMB     42       DOPC     H13A     HL       0.250000       1.00800           0
      5665 MEMB     42       DOPC     H13B     HL       0.250000       1.00800           0
      5666 MEMB     42       DOPC     H13C     HL       0.250000       1.00800           0
      5667 MEMB     42       DOPC     C14      CTL5    -0.350000       12.0110           0
      5668 MEMB     42       DOPC     H14A     HL       0.250000       1.00800           0
      5669 MEMB     42       DOPC     H14B     HL       0.250000       1.00800           0
      5670 MEMB     42       DOPC     H14C     HL       0.250000       1.00800           0
      5671 MEMB     42       DOPC     C15      CTL5    -0.350000       12.0110           0
      5672 MEMB     42       DOPC     H15A     HL       0.250000       1.00800           0
      5673 MEMB     42       DOPC     H15B     HL       0.250000       1.00800           0
      5674 MEMB     42       DOPC     H15C     HL       0.250000       1.00800           0
      5675 MEMB     42       DOPC     C11      CTL2    -0.800000E-01   12.0110           0
      5676 MEMB     42       DOPC     H11A     HAL2     0.900000E-01   1.00800           0
      5677 MEMB     42       DOPC     H11B     HAL2     0.900000E-01   1.00800           0
      5678 MEMB     42       DOPC     P        PL        1.50000       30.9740           0
      5679 MEMB     42       DOPC     O13      O2L     -0.780000       15.9994           0
      5680 MEMB     42       DOPC     O14      O2L     -0.780000       15.9994           0
      5681 MEMB     42       DOPC     O12      OSLP    -0.570000       15.9994           0
      5682 MEMB     42       DOPC     O11      OSLP    -0.570000       15.9994           0
      5683 MEMB     42       DOPC     C1       CTL2    -0.800000E-01   12.0110           0
      5684 MEMB     42       DOPC     HA       HAL2     0.900000E-01   1.00800           0
      5685 MEMB     42       DOPC     HB       HAL2     0.900000E-01   1.00800           0
      5686 MEMB     42       DOPC     C2       CTL1     0.170000       12.0110           0
      5687 MEMB     42       DOPC     HS       HAL1     0.900000E-01   1.00800           0
      5688 MEMB     42       DOPC     O21      OSL     -0.490000       15.9994           0
      5689 MEMB     42       DOPC     C21      CL       0.900000       12.0110           0
      5690 MEMB     42       DOPC     O22      OBL     -0.630000       15.9994           0
      5691 MEMB     42       DOPC     C22      CTL2    -0.220000       12.0110           0
      5692 MEMB     42       DOPC     H2R      HAL2     0.900000E-01   1.00800           0
      5693 MEMB     42       DOPC     H2S      HAL2     0.900000E-01   1.00800           0
      5694 MEMB     42       DOPC     C3       CTL2     0.800000E-01   12.0110           0
      5695 MEMB     42       DOPC     HX       HAL2     0.900000E-01   1.00800           0
      5696 MEMB     42       DOPC     HY       HAL2     0.900000E-01   1.00800           0
      5697 MEMB     42       DOPC     O31      OSL     -0.490000       15.9994           0
      5698 MEMB     42       DOPC     C31      CL       0.900000       12.0110           0
      5699 MEMB     42       DOPC     O32      OBL     -0.630000       15.9994           0
      5700 MEMB     42       DOPC     C32      CTL2    -0.220000       12.0110           0
      5701 MEMB     42       DOPC     H2X      HAL2     0.900000E-01   1.00800           0
      5702 MEMB     42       DOPC     H2Y      HAL2     0.900000E-01   1.00800           0
      5703 MEMB     42       DOPC     C23      CTL2    -0.180000       12.0110           0
      5704 MEMB     42       DOPC     H3R      HAL2     0.900000E-01   1.00800           0
      5705 MEMB     42       DOPC     H3S      HAL2     0.900000E-01   1.00800           0
      5706 MEMB     42       DOPC     C24      CTL2    -0.180000       12.0110           0
      5707 MEMB     42       DOPC     H4R      HAL2     0.900000E-01   1.00800           0
      5708 MEMB     42       DOPC     H4S      HAL2     0.900000E-01   1.00800           0
      5709 MEMB     42       DOPC     C25      CTL2    -0.180000       12.0110           0
      5710 MEMB     42       DOPC     H5R      HAL2     0.900000E-01   1.00800           0
      5711 MEMB     42       DOPC     H5S      HAL2     0.900000E-01   1.00800           0
      5712 MEMB     42       DOPC     C26      CTL2    -0.180000       12.0110           0
      5713 MEMB     42       DOPC     H6R      HAL2     0.900000E-01   1.00800           0
      5714 MEMB     42       DOPC     H6S      HAL2     0.900000E-01   1.00800           0
      5715 MEMB     42       DOPC     C27      CTL2    -0.180000       12.0110           0
      5716 MEMB     42       DOPC     H7R      HAL2     0.900000E-01   1.00800           0
      5717 MEMB     42       DOPC     H7S      HAL2     0.900000E-01   1.00800           0
      5718 MEMB     42       DOPC     C28      CTL2    -0.180000       12.0110           0
      5719 MEMB     42       DOPC     H8R      HAL2     0.900000E-01   1.00800           0
      5720 MEMB     42       DOPC     H8S      HAL2     0.900000E-01   1.00800           0
      5721 MEMB     42       DOPC     C29      CEL1    -0.150000       12.0110           0
      5722 MEMB     42       DOPC     H9R      HEL1     0.150000       1.00800           0
      5723 MEMB     42       DOPC     C210     CEL1    -0.150000       12.0110           0
      5724 MEMB     42       DOPC     H10R     HEL1     0.150000       1.00800           0
      5725 MEMB     42       DOPC     C211     CTL2    -0.180000       12.0110           0
      5726 MEMB     42       DOPC     H11R     HAL2     0.900000E-01   1.00800           0
      5727 MEMB     42       DOPC     H11S     HAL2     0.900000E-01   1.00800           0
      5728 MEMB     42       DOPC     C212     CTL2    -0.180000       12.0110           0
      5729 MEMB     42       DOPC     H12R     HAL2     0.900000E-01   1.00800           0
      5730 MEMB     42       DOPC     H12S     HAL2     0.900000E-01   1.00800           0
      5731 MEMB     42       DOPC     C213     CTL2    -0.180000       12.0110           0
      5732 MEMB     42       DOPC     H13R     HAL2     0.900000E-01   1.00800           0
      5733 MEMB     42       DOPC     H13S     HAL2     0.900000E-01   1.00800           0
      5734 MEMB     42       DOPC     C214     CTL2    -0.180000       12.0110           0
      5735 MEMB     42       DOPC     H14R     HAL2     0.900000E-01   1.00800           0
      5736 MEMB     42       DOPC     H14S     HAL2     0.900000E-01   1.00800           0
      5737 MEMB     42       DOPC     C215     CTL2    -0.180000       12.0110           0
      5738 MEMB     42       DOPC     H15R     HAL2     0.900000E-01   1.00800           0
      5739 MEMB     42       DOPC     H15S     HAL2     0.900000E-01   1.00800           0
      5740 MEMB     42       DOPC     C216     CTL2    -0.180000       12.0110           0
      5741 MEMB     42       DOPC     H16R     HAL2     0.900000E-01   1.00800           0
      5742 MEMB     42       DOPC     H16S     HAL2     0.900000E-01   1.00800           0
      5743 MEMB     42       DOPC     C217     CTL2    -0.180000       12.0110           0
      5744 MEMB     42       DOPC     H17R     HAL2     0.900000E-01   1.00800           0
      5745 MEMB     42       DOPC     H17S     HAL2     0.900000E-01   1.00800           0
      5746 MEMB     42       DOPC     C218     CTL3    -0.270000       12.0110           0
      5747 MEMB     42       DOPC     H18R     HAL3     0.900000E-01   1.00800           0
      5748 MEMB     42       DOPC     H18S     HAL3     0.900000E-01   1.00800           0
      5749 MEMB     42       DOPC     H18T     HAL3     0.900000E-01   1.00800           0
      5750 MEMB     42       DOPC     C33      CTL2    -0.180000       12.0110           0
      5751 MEMB     42       DOPC     H3X      HAL2     0.900000E-01   1.00800           0
      5752 MEMB     42       DOPC     H3Y      HAL2     0.900000E-01   1.00800           0
      5753 MEMB     42       DOPC     C34      CTL2    -0.180000       12.0110           0
      5754 MEMB     42       DOPC     H4X      HAL2     0.900000E-01   1.00800           0
      5755 MEMB     42       DOPC     H4Y      HAL2     0.900000E-01   1.00800           0
      5756 MEMB     42       DOPC     C35      CTL2    -0.180000       12.0110           0
      5757 MEMB     42       DOPC     H5X      HAL2     0.900000E-01   1.00800           0
      5758 MEMB     42       DOPC     H5Y      HAL2     0.900000E-01   1.00800           0
      5759 MEMB     42       DOPC     C36      CTL2    -0.180000       12.0110           0
      5760 MEMB     42       DOPC     H6X      HAL2     0.900000E-01   1.00800           0
      5761 MEMB     42       DOPC     H6Y      HAL2     0.900000E-01   1.00800           0
      5762 MEMB     42       DOPC     C37      CTL2    -0.180000       12.0110           0
      5763 MEMB     42       DOPC     H7X      HAL2     0.900000E-01   1.00800           0
      5764 MEMB     42       DOPC     H7Y      HAL2     0.900000E-01   1.00800           0
      5765 MEMB     42       DOPC     C38      CTL2    -0.180000       12.0110           0
      5766 MEMB     42       DOPC     H8X      HAL2     0.900000E-01   1.00800           0
      5767 MEMB     42       DOPC     H8Y      HAL2     0.900000E-01   1.00800           0
      5768 MEMB     42       DOPC     C39      CEL1    -0.150000       12.0110           0
      5769 MEMB     42       DOPC     H9X      HEL1     0.150000       1.00800           0
      5770 MEMB     42       DOPC     C310     CEL1    -0.150000       12.0110           0
      5771 MEMB     42       DOPC     H10X     HEL1     0.150000       1.00800           0
      5772 MEMB     42       DOPC     C311     CTL2    -0.180000       12.0110           0
      5773 MEMB     42       DOPC     H11X     HAL2     0.900000E-01   1.00800           0
      5774 MEMB     42       DOPC     H11Y     HAL2     0.900000E-01   1.00800           0
      5775 MEMB     42       DOPC     C312     CTL2    -0.180000       12.0110           0
      5776 MEMB     42       DOPC     H12X     HAL2     0.900000E-01   1.00800           0
      5777 MEMB     42       DOPC     H12Y     HAL2     0.900000E-01   1.00800           0
      5778 MEMB     42       DOPC     C313     CTL2    -0.180000       12.0110           0
      5779 MEMB     42       DOPC     H13X     HAL2     0.900000E-01   1.00800           0
      5780 MEMB     42       DOPC     H13Y     HAL2     0.900000E-01   1.00800           0
      5781 MEMB     42       DOPC     C314     CTL2    -0.180000       12.0110           0
      5782 MEMB     42       DOPC     H14X     HAL2     0.900000E-01   1.00800           0
      5783 MEMB     42       DOPC     H14Y     HAL2     0.900000E-01   1.00800           0
      5784 MEMB     42       DOPC     C315     CTL2    -0.180000       12.0110           0
      5785 MEMB     42       DOPC     H15X     HAL2     0.900000E-01   1.00800           0
      5786 MEMB     42       DOPC     H15Y     HAL2     0.900000E-01   1.00800           0
      5787 MEMB     42       DOPC     C316     CTL2    -0.180000       12.0110           0
      5788 MEMB     42       DOPC     H16X     HAL2     0.900000E-01   1.00800           0
      5789 MEMB     42       DOPC     H16Y     HAL2     0.900000E-01   1.00800           0
      5790 MEMB     42       DOPC     C317     CTL2    -0.180000       12.0110           0
      5791 MEMB     42       DOPC     H17X     HAL2     0.900000E-01   1.00800           0
      5792 MEMB     42       DOPC     H17Y     HAL2     0.900000E-01   1.00800           0
      5793 MEMB     42       DOPC     C318     CTL3    -0.270000       12.0110           0
      5794 MEMB     42       DOPC     H18X     HAL3     0.900000E-01   1.00800           0
      5795 MEMB     42       DOPC     H18Y     HAL3     0.900000E-01   1.00800           0
      5796 MEMB     42       DOPC     H18Z     HAL3     0.900000E-01   1.00800           0
      5797 MEMB     43       DOPC     N        NTL     -0.600000       14.0070           0
      5798 MEMB     43       DOPC     C12      CTL2    -0.100000       12.0110           0
      5799 MEMB     43       DOPC     H12A     HL       0.250000       1.00800           0
      5800 MEMB     43       DOPC     H12B     HL       0.250000       1.00800           0
      5801 MEMB     43       DOPC     C13      CTL5    -0.350000       12.0110           0
      5802 MEMB     43       DOPC     H13A     HL       0.250000       1.00800           0
      5803 MEMB     43       DOPC     H13B     HL       0.250000       1.00800           0
      5804 MEMB     43       DOPC     H13C     HL       0.250000       1.00800           0
      5805 MEMB     43       DOPC     C14      CTL5    -0.350000       12.0110           0
      5806 MEMB     43       DOPC     H14A     HL       0.250000       1.00800           0
      5807 MEMB     43       DOPC     H14B     HL       0.250000       1.00800           0
      5808 MEMB     43       DOPC     H14C     HL       0.250000       1.00800           0
      5809 MEMB     43       DOPC     C15      CTL5    -0.350000       12.0110           0
      5810 MEMB     43       DOPC     H15A     HL       0.250000       1.00800           0
      5811 MEMB     43       DOPC     H15B     HL       0.250000       1.00800           0
      5812 MEMB     43       DOPC     H15C     HL       0.250000       1.00800           0
      5813 MEMB     43       DOPC     C11      CTL2    -0.800000E-01   12.0110           0
      5814 MEMB     43       DOPC     H11A     HAL2     0.900000E-01   1.00800           0
      5815 MEMB     43       DOPC     H11B     HAL2     0.900000E-01   1.00800           0
      5816 MEMB     43       DOPC     P        PL        1.50000       30.9740           0
      5817 MEMB     43       DOPC     O13      O2L     -0.780000       15.9994           0
      5818 MEMB     43       DOPC     O14      O2L     -0.780000       15.9994           0
      5819 MEMB     43       DOPC     O12      OSLP    -0.570000       15.9994           0
      5820 MEMB     43       DOPC     O11      OSLP    -0.570000       15.9994           0
      5821 MEMB     43       DOPC     C1       CTL2    -0.800000E-01   12.0110           0
      5822 MEMB     43       DOPC     HA       HAL2     0.900000E-01   1.00800           0
      5823 MEMB     43       DOPC     HB       HAL2     0.900000E-01   1.00800           0
      5824 MEMB     43       DOPC     C2       CTL1     0.170000       12.0110           0
      5825 MEMB     43       DOPC     HS       HAL1     0.900000E-01   1.00800           0
      5826 MEMB     43       DOPC     O21      OSL     -0.490000       15.9994           0
      5827 MEMB     43       DOPC     C21      CL       0.900000       12.0110           0
      5828 MEMB     43       DOPC     O22      OBL     -0.630000       15.9994           0
      5829 MEMB     43       DOPC     C22      CTL2    -0.220000       12.0110           0
      5830 MEMB     43       DOPC     H2R      HAL2     0.900000E-01   1.00800           0
      5831 MEMB     43       DOPC     H2S      HAL2     0.900000E-01   1.00800           0
      5832 MEMB     43       DOPC     C3       CTL2     0.800000E-01   12.0110           0
      5833 MEMB     43       DOPC     HX       HAL2     0.900000E-01   1.00800           0
      5834 MEMB     43       DOPC     HY       HAL2     0.900000E-01   1.00800           0
      5835 MEMB     43       DOPC     O31      OSL     -0.490000       15.9994           0
      5836 MEMB     43       DOPC     C31      CL       0.900000       12.0110           0
      5837 MEMB     43       DOPC     O32      OBL     -0.630000       15.9994           0
      5838 MEMB     43       DOPC     C32      CTL2    -0.220000       12.0110           0
      5839 MEMB     43       DOPC     H2X      HAL2     0.900000E-01   1.00800           0
      5840 MEMB     43       DOPC     H2Y      HAL2     0.900000E-01   1.00800           0
      5841 MEMB     43       DOPC     C23      CTL2    -0.180000       12.0110           0
      5842 MEMB     43       DOPC     H3R      HAL2     0.900000E-01   1.00800           0
      5843 MEMB     43       DOPC     H3S      HAL2     0.900000E-01   1.00800           0
      5844 MEMB     43       DOPC     C24      CTL2    -0.180000       12.0110           0
      5845 MEMB     43       DOPC     H4R      HAL2     0.900000E-01   1.00800           0
      5846 MEMB     43       DOPC     H4S      HAL2     0.900000E-01   1.00800           0
      5847 MEMB     43       DOPC     C25      CTL2    -0.180000       12.0110           0
      5848 MEMB     43       DOPC     H5R      HAL2     0.900000E-01   1.00800           0
      5849 MEMB     43       DOPC     H5S      HAL2     0.900000E-01   1.00800           0
      5850 MEMB     43       DOPC     C26      CTL2    -0.180000       12.0110           0
      5851 MEMB     43       DOPC     H6R      HAL2     0.900000E-01   1.00800           0
      5852 MEMB     43       DOPC     H6S      HAL2     0.900000E-01   1.00800           0
      5853 MEMB     43       DOPC     C27      CTL2    -0.180000       12.0110           0
      5854 MEMB     43       DOPC     H7R      HAL2     0.900000E-01   1.00800           0
      5855 MEMB     43       DOPC     H7S      HAL2     0.900000E-01   1.00800           0
      5856 MEMB     43       DOPC     C28      CTL2    -0.180000       12.0110           0
      5857 MEMB     43       DOPC     H8R      HAL2     0.900000E-01   1.00800           0
      5858 MEMB     43       DOPC     H8S      HAL2     0.900000E-01   1.00800           0
      5859 MEMB     43       DOPC     C29      CEL1    -0.150000       12.0110           0
      5860 MEMB     43       DOPC     H9R      HEL1     0.150000       1.00800           0
      5861 MEMB     43       DOPC     C210     CEL1    -0.150000       12.0110           0
      5862 MEMB     43       DOPC     H10R     HEL1     0.150000       1.00800           0
      5863 MEMB     43       DOPC     C211     CTL2    -0.180000       12.0110           0
      5864 MEMB     43       DOPC     H11R     HAL2     0.900000E-01   1.00800           0
      5865 MEMB     43       DOPC     H11S     HAL2     0.900000E-01   1.00800           0
      5866 MEMB     43       DOPC     C212     CTL2    -0.180000       12.0110           0
      5867 MEMB     43       DOPC     H12R     HAL2     0.900000E-01   1.00800           0
      5868 MEMB     43       DOPC     H12S     HAL2     0.900000E-01   1.00800           0
      5869 MEMB     43       DOPC     C213     CTL2    -0.180000       12.0110           0
      5870 MEMB     43       DOPC     H13R     HAL2     0.900000E-01   1.00800           0
      5871 MEMB     43       DOPC     H13S     HAL2     0.900000E-01   1.00800           0
      5872 MEMB     43       DOPC     C214     CTL2    -0.180000       12.0110           0
      5873 MEMB     43       DOPC     H14R     HAL2     0.900000E-01   1.00800           0
      5874 MEMB     43       DOPC     H14S     HAL2     0.900000E-01   1.00800           0
      5875 MEMB     43       DOPC     C215     CTL2    -0.180000       12.0110           0
      5876 MEMB     43       DOPC     H15R     HAL2     0.900000E-01   1.00800           0
      5877 MEMB     43       DOPC     H15S     HAL2     0.900000E-01   1.00800           0
      5878 MEMB     43       DOPC     C216     CTL2    -0.180000       12.0110           0
      5879 MEMB     43       DOPC     H16R     HAL2     0.900000E-01   1.00800           0
      5880 MEMB     43       DOPC     H16S     HAL2     0.900000E-01   1.00800           0
      5881 MEMB     43       DOPC     C217     CTL2    -0.180000       12.0110           0
      5882 MEMB     43       DOPC     H17R     HAL2     0.900000E-01   1.00800           0
      5883 MEMB     43       DOPC     H17S     HAL2     0.900000E-01   1.00800           0
      5884 MEMB     43       DOPC     C218     CTL3    -0.270000       12.0110           0
      5885 MEMB     43       DOPC     H18R     HAL3     0.900000E-01   1.00800           0
      5886 MEMB     43       DOPC     H18S     HAL3     0.900000E-01   1.00800           0
      5887 MEMB     43       DOPC     H18T     HAL3     0.900000E-01   1.00800           0
      5888 MEMB     43       DOPC     C33      CTL2    -0.180000       12.0110           0
      5889 MEMB     43       DOPC     H3X      HAL2     0.900000E-01   1.00800           0
      5890 MEMB     43       DOPC     H3Y      HAL2     0.900000E-01   1.00800           0
      5891 MEMB     43       DOPC     C34      CTL2    -0.180000       12.0110           0
      5892 MEMB     43       DOPC     H4X      HAL2     0.900000E-01   1.00800           0
      5893 MEMB     43       DOPC     H4Y      HAL2     0.900000E-01   1.00800           0
      5894 MEMB     43       DOPC     C35      CTL2    -0.180000       12.0110           0
      5895 MEMB     43       DOPC     H5X      HAL2     0.900000E-01   1.00800           0
      5896 MEMB     43       DOPC     H5Y      HAL2     0.900000E-01   1.00800           0
      5897 MEMB     43       DOPC     C36      CTL2    -0.180000       12.0110           0
      5898 MEMB     43       DOPC     H6X      HAL2     0.900000E-01   1.00800           0
      5899 MEMB     43       DOPC     H6Y      HAL2     0.900000E-01   1.00800           0
      5900 MEMB     43       DOPC     C37      CTL2    -0.180000       12.0110           0
      5901 MEMB     43       DOPC     H7X      HAL2     0.900000E-01   1.00800           0
      5902 MEMB     43       DOPC     H7Y      HAL2     0.900000E-01   1.00800           0
      5903 MEMB     43       DOPC     C38      CTL2    -0.180000       12.0110           0
      5904 MEMB     43       DOPC     H8X      HAL2     0.900000E-01   1.00800           0
      5905 MEMB     43       DOPC     H8Y      HAL2     0.900000E-01   1.00800           0
      5906 MEMB     43       DOPC     C39      CEL1    -0.150000       12.0110           0
      5907 MEMB     43       DOPC     H9X      HEL1     0.150000       1.00800           0
      5908 MEMB     43       DOPC     C310     CEL1    -0.150000       12.0110           0
      5909 MEMB     43       DOPC     H10X     HEL1     0.150000       1.00800           0
      5910 MEMB     43       DOPC     C311     CTL2    -0.180000       12.0110           0
      5911 MEMB     43       DOPC     H11X     HAL2     0.900000E-01   1.00800           0
      5912 MEMB     43       DOPC     H11Y     HAL2     0.900000E-01   1.00800           0
      5913 MEMB     43       DOPC     C312     CTL2    -0.180000       12.0110           0
      5914 MEMB     43       DOPC     H12X     HAL2     0.900000E-01   1.00800           0
      5915 MEMB     43       DOPC     H12Y     HAL2     0.900000E-01   1.00800           0
      5916 MEMB     43       DOPC     C313     CTL2    -0.180000       12.0110           0
      5917 MEMB     43       DOPC     H13X     HAL2     0.900000E-01   1.00800           0
      5918 MEMB     43       DOPC     H13Y     HAL2     0.900000E-01   1.00800           0
      5919 MEMB     43       DOPC     C314     CTL2    -0.180000       12.0110           0
      5920 MEMB     43       DOPC     H14X     HAL2     0.900000E-01   1.00800           0
      5921 MEMB     43       DOPC     H14Y     HAL2     0.900000E-01   1.00800           0
      5922 MEMB     43       DOPC     C315     CTL2    -0.180000       12.0110           0
      5923 MEMB     43       DOPC     H15X     HAL2     0.900000E-01   1.00800           0
      5924 MEMB     43       DOPC     H15Y     HAL2     0.900000E-01   1.00800           0
      5925 MEMB     43       DOPC     C316     CTL2    -0.180000       12.0110           0
      5926 MEMB     43       DOPC     H16X     HAL2     0.900000E-01   1.00800           0
      5927 MEMB     43       DOPC     H16Y     HAL2     0.900000E-01   1.00800           0
      5928 MEMB     43       DOPC     C317     CTL2    -0.180000       12.0110           0
      5929 MEMB     43       DOPC     H17X     HAL2     0.900000E-01   1.00800           0
      5930 MEMB     43       DOPC     H17Y     HAL2     0.900000E-01   1.00800           0
      5931 MEMB     43       DOPC     C318     CTL3    -0.270000       12.0110           0
      5932 MEMB     43       DOPC     H18X     HAL3     0.900000E-01   1.00800           0
      5933 MEMB     43       DOPC     H18Y     HAL3     0.900000E-01   1.00800           0
      5934 MEMB     43       DOPC     H18Z     HAL3     0.900000E-01   1.00800           0
      5935 MEMB     44       DOPC     N        NTL     -0.600000       14.0070           0
      5936 MEMB     44       DOPC     C12      CTL2    -0.100000       12.0110           0
      5937 MEMB     44       DOPC     H12A     HL       0.250000       1.00800           0
      5938 MEMB     44       DOPC     H12B     HL       0.250000       1.00800           0
      5939 MEMB     44       DOPC     C13      CTL5    -0.350000       12.0110           0
      5940 MEMB     44       DOPC     H13A     HL       0.250000       1.00800           0
      5941 MEMB     44       DOPC     H13B     HL       0.250000       1.00800           0
      5942 MEMB     44       DOPC     H13C     HL       0.250000       1.00800           0
      5943 MEMB     44       DOPC     C14      CTL5    -0.350000       12.0110           0
      5944 MEMB     44       DOPC     H14A     HL       0.250000       1.00800           0
      5945 MEMB     44       DOPC     H14B     HL       0.250000       1.00800           0
      5946 MEMB     44       DOPC     H14C     HL       0.250000       1.00800           0
      5947 MEMB     44       DOPC     C15      CTL5    -0.350000       12.0110           0
      5948 MEMB     44       DOPC     H15A     HL       0.250000       1.00800           0
      5949 MEMB     44       DOPC     H15B     HL       0.250000       1.00800           0
      5950 MEMB     44       DOPC     H15C     HL       0.250000       1.00800           0
      5951 MEMB     44       DOPC     C11      CTL2    -0.800000E-01   12.0110           0
      5952 MEMB     44       DOPC     H11A     HAL2     0.900000E-01   1.00800           0
      5953 MEMB     44       DOPC     H11B     HAL2     0.900000E-01   1.00800           0
      5954 MEMB     44       DOPC     P        PL        1.50000       30.9740           0
      5955 MEMB     44       DOPC     O13      O2L     -0.780000       15.9994           0
      5956 MEMB     44       DOPC     O14      O2L     -0.780000       15.9994           0
      5957 MEMB     44       DOPC     O12      OSLP    -0.570000       15.9994           0
      5958 MEMB     44       DOPC     O11      OSLP    -0.570000       15.9994           0
      5959 MEMB     44       DOPC     C1       CTL2    -0.800000E-01   12.0110           0
      5960 MEMB     44       DOPC     HA       HAL2     0.900000E-01   1.00800           0
      5961 MEMB     44       DOPC     HB       HAL2     0.900000E-01   1.00800           0
      5962 MEMB     44       DOPC     C2       CTL1     0.170000       12.0110           0
      5963 MEMB     44       DOPC     HS       HAL1     0.900000E-01   1.00800           0
      5964 MEMB     44       DOPC     O21      OSL     -0.490000       15.9994           0
      5965 MEMB     44       DOPC     C21      CL       0.900000       12.0110           0
      5966 MEMB     44       DOPC     O22      OBL     -0.630000       15.9994           0
      5967 MEMB     44       DOPC     C22      CTL2    -0.220000       12.0110           0
      5968 MEMB     44       DOPC     H2R      HAL2     0.900000E-01   1.00800           0
      5969 MEMB     44       DOPC     H2S      HAL2     0.900000E-01   1.00800           0
      5970 MEMB     44       DOPC     C3       CTL2     0.800000E-01   12.0110           0
      5971 MEMB     44       DOPC     HX       HAL2     0.900000E-01   1.00800           0
      5972 MEMB     44       DOPC     HY       HAL2     0.900000E-01   1.00800           0
      5973 MEMB     44       DOPC     O31      OSL     -0.490000       15.9994           0
      5974 MEMB     44       DOPC     C31      CL       0.900000       12.0110           0
      5975 MEMB     44       DOPC     O32      OBL     -0.630000       15.9994           0
      5976 MEMB     44       DOPC     C32      CTL2    -0.220000       12.0110           0
      5977 MEMB     44       DOPC     H2X      HAL2     0.900000E-01   1.00800           0
      5978 MEMB     44       DOPC     H2Y      HAL2     0.900000E-01   1.00800           0
      5979 MEMB     44       DOPC     C23      CTL2    -0.180000       12.0110           0
      5980 MEMB     44       DOPC     H3R      HAL2     0.900000E-01   1.00800           0
      5981 MEMB     44       DOPC     H3S      HAL2     0.900000E-01   1.00800           0
      5982 MEMB     44       DOPC     C24      CTL2    -0.180000       12.0110           0
      5983 MEMB     44       DOPC     H4R      HAL2     0.900000E-01   1.00800           0
      5984 MEMB     44       DOPC     H4S      HAL2     0.900000E-01   1.00800           0
      5985 MEMB     44       DOPC     C25      CTL2    -0.180000       12.0110           0
      5986 MEMB     44       DOPC     H5R      HAL2     0.900000E-01   1.00800           0
      5987 MEMB     44       DOPC     H5S      HAL2     0.900000E-01   1.00800           0
      5988 MEMB     44       DOPC     C26      CTL2    -0.180000       12.0110           0
      5989 MEMB     44       DOPC     H6R      HAL2     0.900000E-01   1.00800           0
      5990 MEMB     44       DOPC     H6S      HAL2     0.900000E-01   1.00800           0
      5991 MEMB     44       DOPC     C27      CTL2    -0.180000       12.0110           0
      5992 MEMB     44       DOPC     H7R      HAL2     0.900000E-01   1.00800           0
      5993 MEMB     44       DOPC     H7S      HAL2     0.900000E-01   1.00800           0
      5994 MEMB     44       DOPC     C28      CTL2    -0.180000       12.0110           0
      5995 MEMB     44       DOPC     H8R      HAL2     0.900000E-01   1.00800           0
      5996 MEMB     44       DOPC     H8S      HAL2     0.900000E-01   1.00800           0
      5997 MEMB     44       DOPC     C29      CEL1    -0.150000       12.0110           0
      5998 MEMB     44       DOPC     H9R      HEL1     0.150000       1.00800           0
      5999 MEMB     44       DOPC     C210     CEL1    -0.150000       12.0110           0
      6000 MEMB     44       DOPC     H10R     HEL1     0.150000       1.00800           0
      6001 MEMB     44       DOPC     C211     CTL2    -0.180000       12.0110           0
      6002 MEMB     44       DOPC     H11R     HAL2     0.900000E-01   1.00800           0
      6003 MEMB     44       DOPC     H11S     HAL2     0.900000E-01   1.00800           0
      6004 MEMB     44       DOPC     C212     CTL2    -0.180000       12.0110           0
      6005 MEMB     44       DOPC     H12R     HAL2     0.900000E-01   1.00800           0
      6006 MEMB     44       DOPC     H12S     HAL2     0.900000E-01   1.00800           0
      6007 MEMB     44       DOPC     C213     CTL2    -0.180000       12.0110           0
      6008 MEMB     44       DOPC     H13R     HAL2     0.900000E-01   1.00800           0
      6009 MEMB     44       DOPC     H13S     HAL2     0.900000E-01   1.00800           0
      6010 MEMB     44       DOPC     C214     CTL2    -0.180000       12.0110           0
      6011 MEMB     44       DOPC     H14R     HAL2     0.900000E-01   1.00800           0
      6012 MEMB     44       DOPC     H14S     HAL2     0.900000E-01   1.00800           0
      6013 MEMB     44       DOPC     C215     CTL2    -0.180000       12.0110           0
      6014 MEMB     44       DOPC     H15R     HAL2     0.900000E-01   1.00800           0
      6015 MEMB     44       DOPC     H15S     HAL2     0.900000E-01   1.00800           0
      6016 MEMB     44       DOPC     C216     CTL2    -0.180000       12.0110           0
      6017 MEMB     44       DOPC     H16R     HAL2     0.900000E-01   1.00800           0
      6018 MEMB     44       DOPC     H16S     HAL2     0.900000E-01   1.00800           0
      6019 MEMB     44       DOPC     C217     CTL2    -0.180000       12.0110           0
      6020 MEMB     44       DOPC     H17R     HAL2     0.900000E-01   1.00800           0
      6021 MEMB     44       DOPC     H17S     HAL2     0.900000E-01   1.00800           0
      6022 MEMB     44       DOPC     C218     CTL3    -0.270000       12.0110           0
      6023 MEMB     44       DOPC     H18R     HAL3     0.900000E-01   1.00800           0
      6024 MEMB     44       DOPC     H18S     HAL3     0.900000E-01   1.00800           0
      6025 MEMB     44       DOPC     H18T     HAL3     0.900000E-01   1.00800           0
      6026 MEMB     44       DOPC     C33      CTL2    -0.180000       12.0110           0
      6027 MEMB     44       DOPC     H3X      HAL2     0.900000E-01   1.00800           0
      6028 MEMB     44       DOPC     H3Y      HAL2     0.900000E-01   1.00800           0
      6029 MEMB     44       DOPC     C34      CTL2    -0.180000       12.0110           0
      6030 MEMB     44       DOPC     H4X      HAL2     0.900000E-01   1.00800           0
      6031 MEMB     44       DOPC     H4Y      HAL2     0.900000E-01   1.00800           0
      6032 MEMB     44       DOPC     C35      CTL2    -0.180000       12.0110           0
      6033 MEMB     44       DOPC     H5X      HAL2     0.900000E-01   1.00800           0
      6034 MEMB     44       DOPC     H5Y      HAL2     0.900000E-01   1.00800           0
      6035 MEMB     44       DOPC     C36      CTL2    -0.180000       12.0110           0
      6036 MEMB     44       DOPC     H6X      HAL2     0.900000E-01   1.00800           0
      6037 MEMB     44       DOPC     H6Y      HAL2     0.900000E-01   1.00800           0
      6038 MEMB     44       DOPC     C37      CTL2    -0.180000       12.0110           0
      6039 MEMB     44       DOPC     H7X      HAL2     0.900000E-01   1.00800           0
      6040 MEMB     44       DOPC     H7Y      HAL2     0.900000E-01   1.00800           0
      6041 MEMB     44       DOPC     C38      CTL2    -0.180000       12.0110           0
      6042 MEMB     44       DOPC     H8X      HAL2     0.900000E-01   1.00800           0
      6043 MEMB     44       DOPC     H8Y      HAL2     0.900000E-01   1.00800           0
      6044 MEMB     44       DOPC     C39      CEL1    -0.150000       12.0110           0
      6045 MEMB     44       DOPC     H9X      HEL1     0.150000       1.00800           0
      6046 MEMB     44       DOPC     C310     CEL1    -0.150000       12.0110           0
      6047 MEMB     44       DOPC     H10X     HEL1     0.150000       1.00800           0
      6048 MEMB     44       DOPC     C311     CTL2    -0.180000       12.0110           0
      6049 MEMB     44       DOPC     H11X     HAL2     0.900000E-01   1.00800           0
      6050 MEMB     44       DOPC     H11Y     HAL2     0.900000E-01   1.00800           0
      6051 MEMB     44       DOPC     C312     CTL2    -0.180000       12.0110           0
      6052 MEMB     44       DOPC     H12X     HAL2     0.900000E-01   1.00800           0
      6053 MEMB     44       DOPC     H12Y     HAL2     0.900000E-01   1.00800           0
      6054 MEMB     44       DOPC     C313     CTL2    -0.180000       12.0110           0
      6055 MEMB     44       DOPC     H13X     HAL2     0.900000E-01   1.00800           0
      6056 MEMB     44       DOPC     H13Y     HAL2     0.900000E-01   1.00800           0
      6057 MEMB     44       DOPC     C314     CTL2    -0.180000       12.0110           0
      6058 MEMB     44       DOPC     H14X     HAL2     0.900000E-01   1.00800           0
      6059 MEMB     44       DOPC     H14Y     HAL2     0.900000E-01   1.00800           0
      6060 MEMB     44       DOPC     C315     CTL2    -0.180000       12.0110           0
      6061 MEMB     44       DOPC     H15X     HAL2     0.900000E-01   1.00800           0
      6062 MEMB     44       DOPC     H15Y     HAL2     0.900000E-01   1.00800           0
      6063 MEMB     44       DOPC     C316     CTL2    -0.180000       12.0110           0
      6064 MEMB     44       DOPC     H16X     HAL2     0.900000E-01   1.00800           0
      6065 MEMB     44       DOPC     H16Y     HAL2     0.900000E-01   1.00800           0
      6066 MEMB     44       DOPC     C317     CTL2    -0.180000       12.0110           0
      6067 MEMB     44       DOPC     H17X     HAL2     0.900000E-01   1.00800           0
      6068 MEMB     44       DOPC     H17Y     HAL2     0.900000E-01   1.00800           0
      6069 MEMB     44       DOPC     C318     CTL3    -0.270000       12.0110           0
      6070 MEMB     44       DOPC     H18X     HAL3     0.900000E-01   1.00800           0
      6071 MEMB     44       DOPC     H18Y     HAL3     0.900000E-01   1.00800           0
      6072 MEMB     44       DOPC     H18Z     HAL3     0.900000E-01   1.00800           0
      6073 MEMB     45       DOPC     N        NTL     -0.600000       14.0070           0
      6074 MEMB     45       DOPC     C12      CTL2    -0.100000       12.0110           0
      6075 MEMB     45       DOPC     H12A     HL       0.250000       1.00800           0
      6076 MEMB     45       DOPC     H12B     HL       0.250000       1.00800           0
      6077 MEMB     45       DOPC     C13      CTL5    -0.350000       12.0110           0
      6078 MEMB     45       DOPC     H13A     HL       0.250000       1.00800           0
      6079 MEMB     45       DOPC     H13B     HL       0.250000       1.00800           0
      6080 MEMB     45       DOPC     H13C     HL       0.250000       1.00800           0
      6081 MEMB     45       DOPC     C14      CTL5    -0.350000       12.0110           0
      6082 MEMB     45       DOPC     H14A     HL       0.250000       1.00800           0
      6083 MEMB     45       DOPC     H14B     HL       0.250000       1.00800           0
      6084 MEMB     45       DOPC     H14C     HL       0.250000       1.00800           0
      6085 MEMB     45       DOPC     C15      CTL5    -0.350000       12.0110           0
      6086 MEMB     45       DOPC     H15A     HL       0.250000       1.00800           0
      6087 MEMB     45       DOPC     H15B     HL       0.250000       1.00800           0
      6088 MEMB     45       DOPC     H15C     HL       0.250000       1.00800           0
      6089 MEMB     45       DOPC     C11      CTL2    -0.800000E-01   12.0110           0
      6090 MEMB     45       DOPC     H11A     HAL2     0.900000E-01   1.00800           0
      6091 MEMB     45       DOPC     H11B     HAL2     0.900000E-01   1.00800           0
      6092 MEMB     45       DOPC     P        PL        1.50000       30.9740           0
      6093 MEMB     45       DOPC     O13      O2L     -0.780000       15.9994           0
      6094 MEMB     45       DOPC     O14      O2L     -0.780000       15.9994           0
      6095 MEMB     45       DOPC     O12      OSLP    -0.570000       15.9994           0
      6096 MEMB     45       DOPC     O11      OSLP    -0.570000       15.9994           0
      6097 MEMB     45       DOPC     C1       CTL2    -0.800000E-01   12.0110           0
      6098 MEMB     45       DOPC     HA       HAL2     0.900000E-01   1.00800           0
      6099 MEMB     45       DOPC     HB       HAL2     0.900000E-01   1.00800           0
      6100 MEMB     45       DOPC     C2       CTL1     0.170000       12.0110           0
      6101 MEMB     45       DOPC     HS       HAL1     0.900000E-01   1.00800           0
      6102 MEMB     45       DOPC     O21      OSL     -0.490000       15.9994           0
      6103 MEMB     45       DOPC     C21      CL       0.900000       12.0110           0
      6104 MEMB     45       DOPC     O22      OBL     -0.630000       15.9994           0
      6105 MEMB     45       DOPC     C22      CTL2    -0.220000       12.0110           0
      6106 MEMB     45       DOPC     H2R      HAL2     0.900000E-01   1.00800           0
      6107 MEMB     45       DOPC     H2S      HAL2     0.900000E-01   1.00800           0
      6108 MEMB     45       DOPC     C3       CTL2     0.800000E-01   12.0110           0
      6109 MEMB     45       DOPC     HX       HAL2     0.900000E-01   1.00800           0
      6110 MEMB     45       DOPC     HY       HAL2     0.900000E-01   1.00800           0
      6111 MEMB     45       DOPC     O31      OSL     -0.490000       15.9994           0
      6112 MEMB     45       DOPC     C31      CL       0.900000       12.0110           0
      6113 MEMB     45       DOPC     O32      OBL     -0.630000       15.9994           0
      6114 MEMB     45       DOPC     C32      CTL2    -0.220000       12.0110           0
      6115 MEMB     45       DOPC     H2X      HAL2     0.900000E-01   1.00800           0
      6116 MEMB     45       DOPC     H2Y      HAL2     0.900000E-01   1.00800           0
      6117 MEMB     45       DOPC     C23      CTL2    -0.180000       12.0110           0
      6118 MEMB     45       DOPC     H3R      HAL2     0.900000E-01   1.00800           0
      6119 MEMB     45       DOPC     H3S      HAL2     0.900000E-01   1.00800           0
      6120 MEMB     45       DOPC     C24      CTL2    -0.180000       12.0110           0
      6121 MEMB     45       DOPC     H4R      HAL2     0.900000E-01   1.00800           0
      6122 MEMB     45       DOPC     H4S      HAL2     0.900000E-01   1.00800           0
      6123 MEMB     45       DOPC     C25      CTL2    -0.180000       12.0110           0
      6124 MEMB     45       DOPC     H5R      HAL2     0.900000E-01   1.00800           0
      6125 MEMB     45       DOPC     H5S      HAL2     0.900000E-01   1.00800           0
      6126 MEMB     45       DOPC     C26      CTL2    -0.180000       12.0110           0
      6127 MEMB     45       DOPC     H6R      HAL2     0.900000E-01   1.00800           0
      6128 MEMB     45       DOPC     H6S      HAL2     0.900000E-01   1.00800           0
      6129 MEMB     45       DOPC     C27      CTL2    -0.180000       12.0110           0
      6130 MEMB     45       DOPC     H7R      HAL2     0.900000E-01   1.00800           0
      6131 MEMB     45       DOPC     H7S      HAL2     0.900000E-01   1.00800           0
      6132 MEMB     45       DOPC     C28      CTL2    -0.180000       12.0110           0
      6133 MEMB     45       DOPC     H8R      HAL2     0.900000E-01   1.00800           0
      6134 MEMB     45       DOPC     H8S      HAL2     0.900000E-01   1.00800           0
      6135 MEMB     45       DOPC     C29      CEL1    -0.150000       12.0110           0
      6136 MEMB     45       DOPC     H9R      HEL1     0.150000       1.00800           0
      6137 MEMB     45       DOPC     C210     CEL1    -0.150000       12.0110           0
      6138 MEMB     45       DOPC     H10R     HEL1     0.150000       1.00800           0
      6139 MEMB     45       DOPC     C211     CTL2    -0.180000       12.0110           0
      6140 MEMB     45       DOPC     H11R     HAL2     0.900000E-01   1.00800           0
      6141 MEMB     45       DOPC     H11S     HAL2     0.900000E-01   1.00800           0
      6142 MEMB     45       DOPC     C212     CTL2    -0.180000       12.0110           0
      6143 MEMB     45       DOPC     H12R     HAL2     0.900000E-01   1.00800           0
      6144 MEMB     45       DOPC     H12S     HAL2     0.900000E-01   1.00800           0
      6145 MEMB     45       DOPC     C213     CTL2    -0.180000       12.0110           0
      6146 MEMB     45       DOPC     H13R     HAL2     0.900000E-01   1.00800           0
      6147 MEMB     45       DOPC     H13S     HAL2     0.900000E-01   1.00800           0
      6148 MEMB     45       DOPC     C214     CTL2    -0.180000       12.0110           0
      6149 MEMB     45       DOPC     H14R     HAL2     0.900000E-01   1.00800           0
      6150 MEMB     45       DOPC     H14S     HAL2     0.900000E-01   1.00800           0
      6151 MEMB     45       DOPC     C215     CTL2    -0.180000       12.0110           0
      6152 MEMB     45       DOPC     H15R     HAL2     0.900000E-01   1.00800           0
      6153 MEMB     45       DOPC     H15S     HAL2     0.900000E-01   1.00800           0
      6154 MEMB     45       DOPC     C216     CTL2    -0.180000       12.0110           0
      6155 MEMB     45       DOPC     H16R     HAL2     0.900000E-01   1.00800           0
      6156 MEMB     45       DOPC     H16S     HAL2     0.900000E-01   1.00800           0
      6157 MEMB     45       DOPC     C217     CTL2    -0.180000       12.0110           0
      6158 MEMB     45       DOPC     H17R     HAL2     0.900000E-01   1.00800           0
      6159 MEMB     45       DOPC     H17S     HAL2     0.900000E-01   1.00800           0
      6160 MEMB     45       DOPC     C218     CTL3    -0.270000       12.0110           0
      6161 MEMB     45       DOPC     H18R     HAL3     0.900000E-01   1.00800           0
      6162 MEMB     45       DOPC     H18S     HAL3     0.900000E-01   1.00800           0
      6163 MEMB     45       DOPC     H18T     HAL3     0.900000E-01   1.00800           0
      6164 MEMB     45       DOPC     C33      CTL2    -0.180000       12.0110           0
      6165 MEMB     45       DOPC     H3X      HAL2     0.900000E-01   1.00800           0
      6166 MEMB     45       DOPC     H3Y      HAL2     0.900000E-01   1.00800           0
      6167 MEMB     45       DOPC     C34      CTL2    -0.180000       12.0110           0
      6168 MEMB     45       DOPC     H4X      HAL2     0.900000E-01   1.00800           0
      6169 MEMB     45       DOPC     H4Y      HAL2     0.900000E-01   1.00800           0
      6170 MEMB     45       DOPC     C35      CTL2    -0.180000       12.0110           0
      6171 MEMB     45       DOPC     H5X      HAL2     0.900000E-01   1.00800           0
      6172 MEMB     45       DOPC     H5Y      HAL2     0.900000E-01   1.00800           0
      6173 MEMB     45       DOPC     C36      CTL2    -0.180000       12.0110           0
      6174 MEMB     45       DOPC     H6X      HAL2     0.900000E-01   1.00800           0
      6175 MEMB     45       DOPC     H6Y      HAL2     0.900000E-01   1.00800           0
      6176 MEMB     45       DOPC     C37      CTL2    -0.180000       12.0110           0
      6177 MEMB     45       DOPC     H7X      HAL2     0.900000E-01   1.00800           0
      6178 MEMB     45       DOPC     H7Y      HAL2     0.900000E-01   1.00800           0
      6179 MEMB     45       DOPC     C38      CTL2    -0.180000       12.0110           0
      6180 MEMB     45       DOPC     H8X      HAL2     0.900000E-01   1.00800           0
      6181 MEMB     45       DOPC     H8Y      HAL2     0.900000E-01   1.00800           0
      6182 MEMB     45       DOPC     C39      CEL1    -0.150000       12.0110           0
      6183 MEMB     45       DOPC     H9X      HEL1     0.150000       1.00800           0
      6184 MEMB     45       DOPC     C310     CEL1    -0.150000       12.0110           0
      6185 MEMB     45       DOPC     H10X     HEL1     0.150000       1.00800           0
      6186 MEMB     45       DOPC     C311     CTL2    -0.180000       12.0110           0
      6187 MEMB     45       DOPC     H11X     HAL2     0.900000E-01   1.00800           0
      6188 MEMB     45       DOPC     H11Y     HAL2     0.900000E-01   1.00800           0
      6189 MEMB     45       DOPC     C312     CTL2    -0.180000       12.0110           0
      6190 MEMB     45       DOPC     H12X     HAL2     0.900000E-01   1.00800           0
      6191 MEMB     45       DOPC     H12Y     HAL2     0.900000E-01   1.00800           0
      6192 MEMB     45       DOPC     C313     CTL2    -0.180000       12.0110           0
      6193 MEMB     45       DOPC     H13X     HAL2     0.900000E-01   1.00800           0
      6194 MEMB     45       DOPC     H13Y     HAL2     0.900000E-01   1.00800           0
      6195 MEMB     45       DOPC     C314     CTL2    -0.180000       12.0110           0
      6196 MEMB     45       DOPC     H14X     HAL2     0.900000E-01   1.00800           0
      6197 MEMB     45       DOPC     H14Y     HAL2     0.900000E-01   1.00800           0
      6198 MEMB     45       DOPC     C315     CTL2    -0.180000       12.0110           0
      6199 MEMB     45       DOPC     H15X     HAL2     0.900000E-01   1.00800           0
      6200 MEMB     45       DOPC     H15Y     HAL2     0.900000E-01   1.00800           0
      6201 MEMB     45       DOPC     C316     CTL2    -0.180000       12.0110           0
      6202 MEMB     45       DOPC     H16X     HAL2     0.900000E-01   1.00800           0
      6203 MEMB     45       DOPC     H16Y     HAL2     0.900000E-01   1.00800           0
      6204 MEMB     45       DOPC     C317     CTL2    -0.180000       12.0110           0
      6205 MEMB     45       DOPC     H17X     HAL2     0.900000E-01   1.00800           0
      6206 MEMB     45       DOPC     H17Y     HAL2     0.900000E-01   1.00800           0
      6207 MEMB     45       DOPC     C318     CTL3    -0.270000       12.0110           0
      6208 MEMB     45       DOPC     H18X     HAL3     0.900000E-01   1.00800           0
      6209 MEMB     45       DOPC     H18Y     HAL3     0.900000E-01   1.00800           0
      6210 MEMB     45       DOPC     H18Z     HAL3     0.900000E-01   1.00800           0
      6211 MEMB     46       DOPC     N        NTL     -0.600000       14.0070           0
      6212 MEMB     46       DOPC     C12      CTL2    -0.100000       12.0110           0
      6213 MEMB     46       DOPC     H12A     HL       0.250000       1.00800           0
      6214 MEMB     46       DOPC     H12B     HL       0.250000       1.00800           0
      6215 MEMB     46       DOPC     C13      CTL5    -0.350000       12.0110           0
      6216 MEMB     46       DOPC     H13A     HL       0.250000       1.00800           0
      6217 MEMB     46       DOPC     H13B     HL       0.250000       1.00800           0
      6218 MEMB     46       DOPC     H13C     HL       0.250000       1.00800           0
      6219 MEMB     46       DOPC     C14      CTL5    -0.350000       12.0110           0
      6220 MEMB     46       DOPC     H14A     HL       0.250000       1.00800           0
      6221 MEMB     46       DOPC     H14B     HL       0.250000       1.00800           0
      6222 MEMB     46       DOPC     H14C     HL       0.250000       1.00800           0
      6223 MEMB     46       DOPC     C15      CTL5    -0.350000       12.0110           0
      6224 MEMB     46       DOPC     H15A     HL       0.250000       1.00800           0
      6225 MEMB     46       DOPC     H15B     HL       0.250000       1.00800           0
      6226 MEMB     46       DOPC     H15C     HL       0.250000       1.00800           0
      6227 MEMB     46       DOPC     C11      CTL2    -0.800000E-01   12.0110           0
      6228 MEMB     46       DOPC     H11A     HAL2     0.900000E-01   1.00800           0
      6229 MEMB     46       DOPC     H11B     HAL2     0.900000E-01   1.00800           0
      6230 MEMB     46       DOPC     P        PL        1.50000       30.9740           0
      6231 MEMB     46       DOPC     O13      O2L     -0.780000       15.9994           0
      6232 MEMB     46       DOPC     O14      O2L     -0.780000       15.9994           0
      6233 MEMB     46       DOPC     O12      OSLP    -0.570000       15.9994           0
      6234 MEMB     46       DOPC     O11      OSLP    -0.570000       15.9994           0
      6235 MEMB     46       DOPC     C1       CTL2    -0.800000E-01   12.0110           0
      6236 MEMB     46       DOPC     HA       HAL2     0.900000E-01   1.00800           0
      6237 MEMB     46       DOPC     HB       HAL2     0.900000E-01   1.00800           0
      6238 MEMB     46       DOPC     C2       CTL1     0.170000       12.0110           0
      6239 MEMB     46       DOPC     HS       HAL1     0.900000E-01   1.00800           0
      6240 MEMB     46       DOPC     O21      OSL     -0.490000       15.9994           0
      6241 MEMB     46       DOPC     C21      CL       0.900000       12.0110           0
      6242 MEMB     46       DOPC     O22      OBL     -0.630000       15.9994           0
      6243 MEMB     46       DOPC     C22      CTL2    -0.220000       12.0110           0
      6244 MEMB     46       DOPC     H2R      HAL2     0.900000E-01   1.00800           0
      6245 MEMB     46       DOPC     H2S      HAL2     0.900000E-01   1.00800           0
      6246 MEMB     46       DOPC     C3       CTL2     0.800000E-01   12.0110           0
      6247 MEMB     46       DOPC     HX       HAL2     0.900000E-01   1.00800           0
      6248 MEMB     46       DOPC     HY       HAL2     0.900000E-01   1.00800           0
      6249 MEMB     46       DOPC     O31      OSL     -0.490000       15.9994           0
      6250 MEMB     46       DOPC     C31      CL       0.900000       12.0110           0
      6251 MEMB     46       DOPC     O32      OBL     -0.630000       15.9994           0
      6252 MEMB     46       DOPC     C32      CTL2    -0.220000       12.0110           0
      6253 MEMB     46       DOPC     H2X      HAL2     0.900000E-01   1.00800           0
      6254 MEMB     46       DOPC     H2Y      HAL2     0.900000E-01   1.00800           0
      6255 MEMB     46       DOPC     C23      CTL2    -0.180000       12.0110           0
      6256 MEMB     46       DOPC     H3R      HAL2     0.900000E-01   1.00800           0
      6257 MEMB     46       DOPC     H3S      HAL2     0.900000E-01   1.00800           0
      6258 MEMB     46       DOPC     C24      CTL2    -0.180000       12.0110           0
      6259 MEMB     46       DOPC     H4R      HAL2     0.900000E-01   1.00800           0
      6260 MEMB     46       DOPC     H4S      HAL2     0.900000E-01   1.00800           0
      6261 MEMB     46       DOPC     C25      CTL2    -0.180000       12.0110           0
      6262 MEMB     46       DOPC     H5R      HAL2     0.900000E-01   1.00800           0
      6263 MEMB     46       DOPC     H5S      HAL2     0.900000E-01   1.00800           0
      6264 MEMB     46       DOPC     C26      CTL2    -0.180000       12.0110           0
      6265 MEMB     46       DOPC     H6R      HAL2     0.900000E-01   1.00800           0
      6266 MEMB     46       DOPC     H6S      HAL2     0.900000E-01   1.00800           0
      6267 MEMB     46       DOPC     C27      CTL2    -0.180000       12.0110           0
      6268 MEMB     46       DOPC     H7R      HAL2     0.900000E-01   1.00800           0
      6269 MEMB     46       DOPC     H7S      HAL2     0.900000E-01   1.00800           0
      6270 MEMB     46       DOPC     C28      CTL2    -0.180000       12.0110           0
      6271 MEMB     46       DOPC     H8R      HAL2     0.900000E-01   1.00800           0
      6272 MEMB     46       DOPC     H8S      HAL2     0.900000E-01   1.00800           0
      6273 MEMB     46       DOPC     C29      CEL1    -0.150000       12.0110           0
      6274 MEMB     46       DOPC     H9R      HEL1     0.150000       1.00800           0
      6275 MEMB     46       DOPC     C210     CEL1    -0.150000       12.0110           0
      6276 MEMB     46       DOPC     H10R     HEL1     0.150000       1.00800           0
      6277 MEMB     46       DOPC     C211     CTL2    -0.180000       12.0110           0
      6278 MEMB     46       DOPC     H11R     HAL2     0.900000E-01   1.00800           0
      6279 MEMB     46       DOPC     H11S     HAL2     0.900000E-01   1.00800           0
      6280 MEMB     46       DOPC     C212     CTL2    -0.180000       12.0110           0
      6281 MEMB     46       DOPC     H12R     HAL2     0.900000E-01   1.00800           0
      6282 MEMB     46       DOPC     H12S     HAL2     0.900000E-01   1.00800           0
      6283 MEMB     46       DOPC     C213     CTL2    -0.180000       12.0110           0
      6284 MEMB     46       DOPC     H13R     HAL2     0.900000E-01   1.00800           0
      6285 MEMB     46       DOPC     H13S     HAL2     0.900000E-01   1.00800           0
      6286 MEMB     46       DOPC     C214     CTL2    -0.180000       12.0110           0
      6287 MEMB     46       DOPC     H14R     HAL2     0.900000E-01   1.00800           0
      6288 MEMB     46       DOPC     H14S     HAL2     0.900000E-01   1.00800           0
      6289 MEMB     46       DOPC     C215     CTL2    -0.180000       12.0110           0
      6290 MEMB     46       DOPC     H15R     HAL2     0.900000E-01   1.00800           0
      6291 MEMB     46       DOPC     H15S     HAL2     0.900000E-01   1.00800           0
      6292 MEMB     46       DOPC     C216     CTL2    -0.180000       12.0110           0
      6293 MEMB     46       DOPC     H16R     HAL2     0.900000E-01   1.00800           0
      6294 MEMB     46       DOPC     H16S     HAL2     0.900000E-01   1.00800           0
      6295 MEMB     46       DOPC     C217     CTL2    -0.180000       12.0110           0
      6296 MEMB     46       DOPC     H17R     HAL2     0.900000E-01   1.00800           0
      6297 MEMB     46       DOPC     H17S     HAL2     0.900000E-01   1.00800           0
      6298 MEMB     46       DOPC     C218     CTL3    -0.270000       12.0110           0
      6299 MEMB     46       DOPC     H18R     HAL3     0.900000E-01   1.00800           0
      6300 MEMB     46       DOPC     H18S     HAL3     0.900000E-01   1.00800           0
      6301 MEMB     46       DOPC     H18T     HAL3     0.900000E-01   1.00800           0
      6302 MEMB     46       DOPC     C33      CTL2    -0.180000       12.0110           0
      6303 MEMB     46       DOPC     H3X      HAL2     0.900000E-01   1.00800           0
      6304 MEMB     46       DOPC     H3Y      HAL2     0.900000E-01   1.00800           0
      6305 MEMB     46       DOPC     C34      CTL2    -0.180000       12.0110           0
      6306 MEMB     46       DOPC     H4X      HAL2     0.900000E-01   1.00800           0
      6307 MEMB     46       DOPC     H4Y      HAL2     0.900000E-01   1.00800           0
      6308 MEMB     46       DOPC     C35      CTL2    -0.180000       12.0110           0
      6309 MEMB     46       DOPC     H5X      HAL2     0.900000E-01   1.00800           0
      6310 MEMB     46       DOPC     H5Y      HAL2     0.900000E-01   1.00800           0
      6311 MEMB     46       DOPC     C36      CTL2    -0.180000       12.0110           0
      6312 MEMB     46       DOPC     H6X      HAL2     0.900000E-01   1.00800           0
      6313 MEMB     46       DOPC     H6Y      HAL2     0.900000E-01   1.00800           0
      6314 MEMB     46       DOPC     C37      CTL2    -0.180000       12.0110           0
      6315 MEMB     46       DOPC     H7X      HAL2     0.900000E-01   1.00800           0
      6316 MEMB     46       DOPC     H7Y      HAL2     0.900000E-01   1.00800           0
      6317 MEMB     46       DOPC     C38      CTL2    -0.180000       12.0110           0
      6318 MEMB     46       DOPC     H8X      HAL2     0.900000E-01   1.00800           0
      6319 MEMB     46       DOPC     H8Y      HAL2     0.900000E-01   1.00800           0
      6320 MEMB     46       DOPC     C39      CEL1    -0.150000       12.0110           0
      6321 MEMB     46       DOPC     H9X      HEL1     0.150000       1.00800           0
      6322 MEMB     46       DOPC     C310     CEL1    -0.150000       12.0110           0
      6323 MEMB     46       DOPC     H10X     HEL1     0.150000       1.00800           0
      6324 MEMB     46       DOPC     C311     CTL2    -0.180000       12.0110           0
      6325 MEMB     46       DOPC     H11X     HAL2     0.900000E-01   1.00800           0
      6326 MEMB     46       DOPC     H11Y     HAL2     0.900000E-01   1.00800           0
      6327 MEMB     46       DOPC     C312     CTL2    -0.180000       12.0110           0
      6328 MEMB     46       DOPC     H12X     HAL2     0.900000E-01   1.00800           0
      6329 MEMB     46       DOPC     H12Y     HAL2     0.900000E-01   1.00800           0
      6330 MEMB     46       DOPC     C313     CTL2    -0.180000       12.0110           0
      6331 MEMB     46       DOPC     H13X     HAL2     0.900000E-01   1.00800           0
      6332 MEMB     46       DOPC     H13Y     HAL2     0.900000E-01   1.00800           0
      6333 MEMB     46       DOPC     C314     CTL2    -0.180000       12.0110           0
      6334 MEMB     46       DOPC     H14X     HAL2     0.900000E-01   1.00800           0
      6335 MEMB     46       DOPC     H14Y     HAL2     0.900000E-01   1.00800           0
      6336 MEMB     46       DOPC     C315     CTL2    -0.180000       12.0110           0
      6337 MEMB     46       DOPC     H15X     HAL2     0.900000E-01   1.00800           0
      6338 MEMB     46       DOPC     H15Y     HAL2     0.900000E-01   1.00800           0
      6339 MEMB     46       DOPC     C316     CTL2    -0.180000       12.0110           0
      6340 MEMB     46       DOPC     H16X     HAL2     0.900000E-01   1.00800           0
      6341 MEMB     46       DOPC     H16Y     HAL2     0.900000E-01   1.00800           0
      6342 MEMB     46       DOPC     C317     CTL2    -0.180000       12.0110           0
      6343 MEMB     46       DOPC     H17X     HAL2     0.900000E-01   1.00800           0
      6344 MEMB     46       DOPC     H17Y     HAL2     0.900000E-01   1.00800           0
      6345 MEMB     46       DOPC     C318     CTL3    -0.270000       12.0110           0
      6346 MEMB     46       DOPC     H18X     HAL3     0.900000E-01   1.00800           0
      6347 MEMB     46       DOPC     H18Y     HAL3     0.900000E-01   1.00800           0
      6348 MEMB     46       DOPC     H18Z     HAL3     0.900000E-01   1.00800           0
      6349 MEMB     47       DOPC     N        NTL     -0.600000       14.0070           0
      6350 MEMB     47       DOPC     C12      CTL2    -0.100000       12.0110           0
      6351 MEMB     47       DOPC     H12A     HL       0.250000       1.00800           0
      6352 MEMB     47       DOPC     H12B     HL       0.250000       1.00800           0
      6353 MEMB     47       DOPC     C13      CTL5    -0.350000       12.0110           0
      6354 MEMB     47       DOPC     H13A     HL       0.250000       1.00800           0
      6355 MEMB     47       DOPC     H13B     HL       0.250000       1.00800           0
      6356 MEMB     47       DOPC     H13C     HL       0.250000       1.00800           0
      6357 MEMB     47       DOPC     C14      CTL5    -0.350000       12.0110           0
      6358 MEMB     47       DOPC     H14A     HL       0.250000       1.00800           0
      6359 MEMB     47       DOPC     H14B     HL       0.250000       1.00800           0
      6360 MEMB     47       DOPC     H14C     HL       0.250000       1.00800           0
      6361 MEMB     47       DOPC     C15      CTL5    -0.350000       12.0110           0
      6362 MEMB     47       DOPC     H15A     HL       0.250000       1.00800           0
      6363 MEMB     47       DOPC     H15B     HL       0.250000       1.00800           0
      6364 MEMB     47       DOPC     H15C     HL       0.250000       1.00800           0
      6365 MEMB     47       DOPC     C11      CTL2    -0.800000E-01   12.0110           0
      6366 MEMB     47       DOPC     H11A     HAL2     0.900000E-01   1.00800           0
      6367 MEMB     47       DOPC     H11B     HAL2     0.900000E-01   1.00800           0
      6368 MEMB     47       DOPC     P        PL        1.50000       30.9740           0
      6369 MEMB     47       DOPC     O13      O2L     -0.780000       15.9994           0
      6370 MEMB     47       DOPC     O14      O2L     -0.780000       15.9994           0
      6371 MEMB     47       DOPC     O12      OSLP    -0.570000       15.9994           0
      6372 MEMB     47       DOPC     O11      OSLP    -0.570000       15.9994           0
      6373 MEMB     47       DOPC     C1       CTL2    -0.800000E-01   12.0110           0
      6374 MEMB     47       DOPC     HA       HAL2     0.900000E-01   1.00800           0
      6375 MEMB     47       DOPC     HB       HAL2     0.900000E-01   1.00800           0
      6376 MEMB     47       DOPC     C2       CTL1     0.170000       12.0110           0
      6377 MEMB     47       DOPC     HS       HAL1     0.900000E-01   1.00800           0
      6378 MEMB     47       DOPC     O21      OSL     -0.490000       15.9994           0
      6379 MEMB     47       DOPC     C21      CL       0.900000       12.0110           0
      6380 MEMB     47       DOPC     O22      OBL     -0.630000       15.9994           0
      6381 MEMB     47       DOPC     C22      CTL2    -0.220000       12.0110           0
      6382 MEMB     47       DOPC     H2R      HAL2     0.900000E-01   1.00800           0
      6383 MEMB     47       DOPC     H2S      HAL2     0.900000E-01   1.00800           0
      6384 MEMB     47       DOPC     C3       CTL2     0.800000E-01   12.0110           0
      6385 MEMB     47       DOPC     HX       HAL2     0.900000E-01   1.00800           0
      6386 MEMB     47       DOPC     HY       HAL2     0.900000E-01   1.00800           0
      6387 MEMB     47       DOPC     O31      OSL     -0.490000       15.9994           0
      6388 MEMB     47       DOPC     C31      CL       0.900000       12.0110           0
      6389 MEMB     47       DOPC     O32      OBL     -0.630000       15.9994           0
      6390 MEMB     47       DOPC     C32      CTL2    -0.220000       12.0110           0
      6391 MEMB     47       DOPC     H2X      HAL2     0.900000E-01   1.00800           0
      6392 MEMB     47       DOPC     H2Y      HAL2     0.900000E-01   1.00800           0
      6393 MEMB     47       DOPC     C23      CTL2    -0.180000       12.0110           0
      6394 MEMB     47       DOPC     H3R      HAL2     0.900000E-01   1.00800           0
      6395 MEMB     47       DOPC     H3S      HAL2     0.900000E-01   1.00800           0
      6396 MEMB     47       DOPC     C24      CTL2    -0.180000       12.0110           0
      6397 MEMB     47       DOPC     H4R      HAL2     0.900000E-01   1.00800           0
      6398 MEMB     47       DOPC     H4S      HAL2     0.900000E-01   1.00800           0
      6399 MEMB     47       DOPC     C25      CTL2    -0.180000       12.0110           0
      6400 MEMB     47       DOPC     H5R      HAL2     0.900000E-01   1.00800           0
      6401 MEMB     47       DOPC     H5S      HAL2     0.900000E-01   1.00800           0
      6402 MEMB     47       DOPC     C26      CTL2    -0.180000       12.0110           0
      6403 MEMB     47       DOPC     H6R      HAL2     0.900000E-01   1.00800           0
      6404 MEMB     47       DOPC     H6S      HAL2     0.900000E-01   1.00800           0
      6405 MEMB     47       DOPC     C27      CTL2    -0.180000       12.0110           0
      6406 MEMB     47       DOPC     H7R      HAL2     0.900000E-01   1.00800           0
      6407 MEMB     47       DOPC     H7S      HAL2     0.900000E-01   1.00800           0
      6408 MEMB     47       DOPC     C28      CTL2    -0.180000       12.0110           0
      6409 MEMB     47       DOPC     H8R      HAL2     0.900000E-01   1.00800           0
      6410 MEMB     47       DOPC     H8S      HAL2     0.900000E-01   1.00800           0
      6411 MEMB     47       DOPC     C29      CEL1    -0.150000       12.0110           0
      6412 MEMB     47       DOPC     H9R      HEL1     0.150000       1.00800           0
      6413 MEMB     47       DOPC     C210     CEL1    -0.150000       12.0110           0
      6414 MEMB     47       DOPC     H10R     HEL1     0.150000       1.00800           0
      6415 MEMB     47       DOPC     C211     CTL2    -0.180000       12.0110           0
      6416 MEMB     47       DOPC     H11R     HAL2     0.900000E-01   1.00800           0
      6417 MEMB     47       DOPC     H11S     HAL2     0.900000E-01   1.00800           0
      6418 MEMB     47       DOPC     C212     CTL2    -0.180000       12.0110           0
      6419 MEMB     47       DOPC     H12R     HAL2     0.900000E-01   1.00800           0
      6420 MEMB     47       DOPC     H12S     HAL2     0.900000E-01   1.00800           0
      6421 MEMB     47       DOPC     C213     CTL2    -0.180000       12.0110           0
      6422 MEMB     47       DOPC     H13R     HAL2     0.900000E-01   1.00800           0
      6423 MEMB     47       DOPC     H13S     HAL2     0.900000E-01   1.00800           0
      6424 MEMB     47       DOPC     C214     CTL2    -0.180000       12.0110           0
      6425 MEMB     47       DOPC     H14R     HAL2     0.900000E-01   1.00800           0
      6426 MEMB     47       DOPC     H14S     HAL2     0.900000E-01   1.00800           0
      6427 MEMB     47       DOPC     C215     CTL2    -0.180000       12.0110           0
      6428 MEMB     47       DOPC     H15R     HAL2     0.900000E-01   1.00800           0
      6429 MEMB     47       DOPC     H15S     HAL2     0.900000E-01   1.00800           0
      6430 MEMB     47       DOPC     C216     CTL2    -0.180000       12.0110           0
      6431 MEMB     47       DOPC     H16R     HAL2     0.900000E-01   1.00800           0
      6432 MEMB     47       DOPC     H16S     HAL2     0.900000E-01   1.00800           0
      6433 MEMB     47       DOPC     C217     CTL2    -0.180000       12.0110           0
      6434 MEMB     47       DOPC     H17R     HAL2     0.900000E-01   1.00800           0
      6435 MEMB     47       DOPC     H17S     HAL2     0.900000E-01   1.00800           0
      6436 MEMB     47       DOPC     C218     CTL3    -0.270000       12.0110           0
      6437 MEMB     47       DOPC     H18R     HAL3     0.900000E-01   1.00800           0
      6438 MEMB     47       DOPC     H18S     HAL3     0.900000E-01   1.00800           0
      6439 MEMB     47       DOPC     H18T     HAL3     0.900000E-01   1.00800           0
      6440 MEMB     47       DOPC     C33      CTL2    -0.180000       12.0110           0
      6441 MEMB     47       DOPC     H3X      HAL2     0.900000E-01   1.00800           0
      6442 MEMB     47       DOPC     H3Y      HAL2     0.900000E-01   1.00800           0
      6443 MEMB     47       DOPC     C34      CTL2    -0.180000       12.0110           0
      6444 MEMB     47       DOPC     H4X      HAL2     0.900000E-01   1.00800           0
      6445 MEMB     47       DOPC     H4Y      HAL2     0.900000E-01   1.00800           0
      6446 MEMB     47       DOPC     C35      CTL2    -0.180000       12.0110           0
      6447 MEMB     47       DOPC     H5X      HAL2     0.900000E-01   1.00800           0
      6448 MEMB     47       DOPC     H5Y      HAL2     0.900000E-01   1.00800           0
      6449 MEMB     47       DOPC     C36      CTL2    -0.180000       12.0110           0
      6450 MEMB     47       DOPC     H6X      HAL2     0.900000E-01   1.00800           0
      6451 MEMB     47       DOPC     H6Y      HAL2     0.900000E-01   1.00800           0
      6452 MEMB     47       DOPC     C37      CTL2    -0.180000       12.0110           0
      6453 MEMB     47       DOPC     H7X      HAL2     0.900000E-01   1.00800           0
      6454 MEMB     47       DOPC     H7Y      HAL2     0.900000E-01   1.00800           0
      6455 MEMB     47       DOPC     C38      CTL2    -0.180000       12.0110           0
      6456 MEMB     47       DOPC     H8X      HAL2     0.900000E-01   1.00800           0
      6457 MEMB     47       DOPC     H8Y      HAL2     0.900000E-01   1.00800           0
      6458 MEMB     47       DOPC     C39      CEL1    -0.150000       12.0110           0
      6459 MEMB     47       DOPC     H9X      HEL1     0.150000       1.00800           0
      6460 MEMB     47       DOPC     C310     CEL1    -0.150000       12.0110           0
      6461 MEMB     47       DOPC     H10X     HEL1     0.150000       1.00800           0
      6462 MEMB     47       DOPC     C311     CTL2    -0.180000       12.0110           0
      6463 MEMB     47       DOPC     H11X     HAL2     0.900000E-01   1.00800           0
      6464 MEMB     47       DOPC     H11Y     HAL2     0.900000E-01   1.00800           0
      6465 MEMB     47       DOPC     C312     CTL2    -0.180000       12.0110           0
      6466 MEMB     47       DOPC     H12X     HAL2     0.900000E-01   1.00800           0
      6467 MEMB     47       DOPC     H12Y     HAL2     0.900000E-01   1.00800           0
      6468 MEMB     47       DOPC     C313     CTL2    -0.180000       12.0110           0
      6469 MEMB     47       DOPC     H13X     HAL2     0.900000E-01   1.00800           0
      6470 MEMB     47       DOPC     H13Y     HAL2     0.900000E-01   1.00800           0
      6471 MEMB     47       DOPC     C314     CTL2    -0.180000       12.0110           0
      6472 MEMB     47       DOPC     H14X     HAL2     0.900000E-01   1.00800           0
      6473 MEMB     47       DOPC     H14Y     HAL2     0.900000E-01   1.00800           0
      6474 MEMB     47       DOPC     C315     CTL2    -0.180000       12.0110           0
      6475 MEMB     47       DOPC     H15X     HAL2     0.900000E-01   1.00800           0
      6476 MEMB     47       DOPC     H15Y     HAL2     0.900000E-01   1.00800           0
      6477 MEMB     47       DOPC     C316     CTL2    -0.180000       12.0110           0
      6478 MEMB     47       DOPC     H16X     HAL2     0.900000E-01   1.00800           0
      6479 MEMB     47       DOPC     H16Y     HAL2     0.900000E-01   1.00800           0
      6480 MEMB     47       DOPC     C317     CTL2    -0.180000       12.0110           0
      6481 MEMB     47       DOPC     H17X     HAL2     0.900000E-01   1.00800           0
      6482 MEMB     47       DOPC     H17Y     HAL2     0.900000E-01   1.00800           0
      6483 MEMB     47       DOPC     C318     CTL3    -0.270000       12.0110           0
      6484 MEMB     47       DOPC     H18X     HAL3     0.900000E-01   1.00800           0
      6485 MEMB     47       DOPC     H18Y     HAL3     0.900000E-01   1.00800           0
      6486 MEMB     47       DOPC     H18Z     HAL3     0.900000E-01   1.00800           0
      6487 MEMB     48       DOPC     N        NTL     -0.600000       14.0070           0
      6488 MEMB     48       DOPC     C12      CTL2    -0.100000       12.0110           0
      6489 MEMB     48       DOPC     H12A     HL       0.250000       1.00800           0
      6490 MEMB     48       DOPC     H12B     HL       0.250000       1.00800           0
      6491 MEMB     48       DOPC     C13      CTL5    -0.350000       12.0110           0
      6492 MEMB     48       DOPC     H13A     HL       0.250000       1.00800           0
      6493 MEMB     48       DOPC     H13B     HL       0.250000       1.00800           0
      6494 MEMB     48       DOPC     H13C     HL       0.250000       1.00800           0
      6495 MEMB     48       DOPC     C14      CTL5    -0.350000       12.0110           0
      6496 MEMB     48       DOPC     H14A     HL       0.250000       1.00800           0
      6497 MEMB     48       DOPC     H14B     HL       0.250000       1.00800           0
      6498 MEMB     48       DOPC     H14C     HL       0.250000       1.00800           0
      6499 MEMB     48       DOPC     C15      CTL5    -0.350000       12.0110           0
      6500 MEMB     48       DOPC     H15A     HL       0.250000       1.00800           0
      6501 MEMB     48       DOPC     H15B     HL       0.250000       1.00800           0
      6502 MEMB     48       DOPC     H15C     HL       0.250000       1.00800           0
      6503 MEMB     48       DOPC     C11      CTL2    -0.800000E-01   12.0110           0
      6504 MEMB     48       DOPC     H11A     HAL2     0.900000E-01   1.00800           0
      6505 MEMB     48       DOPC     H11B     HAL2     0.900000E-01   1.00800           0
      6506 MEMB     48       DOPC     P        PL        1.50000       30.9740           0
      6507 MEMB     48       DOPC     O13      O2L     -0.780000       15.9994           0
      6508 MEMB     48       DOPC     O14      O2L     -0.780000       15.9994           0
      6509 MEMB     48       DOPC     O12      OSLP    -0.570000       15.9994           0
      6510 MEMB     48       DOPC     O11      OSLP    -0.570000       15.9994           0
      6511 MEMB     48       DOPC     C1       CTL2    -0.800000E-01   12.0110           0
      6512 MEMB     48       DOPC     HA       HAL2     0.900000E-01   1.00800           0
      6513 MEMB     48       DOPC     HB       HAL2     0.900000E-01   1.00800           0
      6514 MEMB     48       DOPC     C2       CTL1     0.170000       12.0110           0
      6515 MEMB     48       DOPC     HS       HAL1     0.900000E-01   1.00800           0
      6516 MEMB     48       DOPC     O21      OSL     -0.490000       15.9994           0
      6517 MEMB     48       DOPC     C21      CL       0.900000       12.0110           0
      6518 MEMB     48       DOPC     O22      OBL     -0.630000       15.9994           0
      6519 MEMB     48       DOPC     C22      CTL2    -0.220000       12.0110           0
      6520 MEMB     48       DOPC     H2R      HAL2     0.900000E-01   1.00800           0
      6521 MEMB     48       DOPC     H2S      HAL2     0.900000E-01   1.00800           0
      6522 MEMB     48       DOPC     C3       CTL2     0.800000E-01   12.0110           0
      6523 MEMB     48       DOPC     HX       HAL2     0.900000E-01   1.00800           0
      6524 MEMB     48       DOPC     HY       HAL2     0.900000E-01   1.00800           0
      6525 MEMB     48       DOPC     O31      OSL     -0.490000       15.9994           0
      6526 MEMB     48       DOPC     C31      CL       0.900000       12.0110           0
      6527 MEMB     48       DOPC     O32      OBL     -0.630000       15.9994           0
      6528 MEMB     48       DOPC     C32      CTL2    -0.220000       12.0110           0
      6529 MEMB     48       DOPC     H2X      HAL2     0.900000E-01   1.00800           0
      6530 MEMB     48       DOPC     H2Y      HAL2     0.900000E-01   1.00800           0
      6531 MEMB     48       DOPC     C23      CTL2    -0.180000       12.0110           0
      6532 MEMB     48       DOPC     H3R      HAL2     0.900000E-01   1.00800           0
      6533 MEMB     48       DOPC     H3S      HAL2     0.900000E-01   1.00800           0
      6534 MEMB     48       DOPC     C24      CTL2    -0.180000       12.0110           0
      6535 MEMB     48       DOPC     H4R      HAL2     0.900000E-01   1.00800           0
      6536 MEMB     48       DOPC     H4S      HAL2     0.900000E-01   1.00800           0
      6537 MEMB     48       DOPC     C25      CTL2    -0.180000       12.0110           0
      6538 MEMB     48       DOPC     H5R      HAL2     0.900000E-01   1.00800           0
      6539 MEMB     48       DOPC     H5S      HAL2     0.900000E-01   1.00800           0
      6540 MEMB     48       DOPC     C26      CTL2    -0.180000       12.0110           0
      6541 MEMB     48       DOPC     H6R      HAL2     0.900000E-01   1.00800           0
      6542 MEMB     48       DOPC     H6S      HAL2     0.900000E-01   1.00800           0
      6543 MEMB     48       DOPC     C27      CTL2    -0.180000       12.0110           0
      6544 MEMB     48       DOPC     H7R      HAL2     0.900000E-01   1.00800           0
      6545 MEMB     48       DOPC     H7S      HAL2     0.900000E-01   1.00800           0
      6546 MEMB     48       DOPC     C28      CTL2    -0.180000       12.0110           0
      6547 MEMB     48       DOPC     H8R      HAL2     0.900000E-01   1.00800           0
      6548 MEMB     48       DOPC     H8S      HAL2     0.900000E-01   1.00800           0
      6549 MEMB     48       DOPC     C29      CEL1    -0.150000       12.0110           0
      6550 MEMB     48       DOPC     H9R      HEL1     0.150000       1.00800           0
      6551 MEMB     48       DOPC     C210     CEL1    -0.150000       12.0110           0
      6552 MEMB     48       DOPC     H10R     HEL1     0.150000       1.00800           0
      6553 MEMB     48       DOPC     C211     CTL2    -0.180000       12.0110           0
      6554 MEMB     48       DOPC     H11R     HAL2     0.900000E-01   1.00800           0
      6555 MEMB     48       DOPC     H11S     HAL2     0.900000E-01   1.00800           0
      6556 MEMB     48       DOPC     C212     CTL2    -0.180000       12.0110           0
      6557 MEMB     48       DOPC     H12R     HAL2     0.900000E-01   1.00800           0
      6558 MEMB     48       DOPC     H12S     HAL2     0.900000E-01   1.00800           0
      6559 MEMB     48       DOPC     C213     CTL2    -0.180000       12.0110           0
      6560 MEMB     48       DOPC     H13R     HAL2     0.900000E-01   1.00800           0
      6561 MEMB     48       DOPC     H13S     HAL2     0.900000E-01   1.00800           0
      6562 MEMB     48       DOPC     C214     CTL2    -0.180000       12.0110           0
      6563 MEMB     48       DOPC     H14R     HAL2     0.900000E-01   1.00800           0
      6564 MEMB     48       DOPC     H14S     HAL2     0.900000E-01   1.00800           0
      6565 MEMB     48       DOPC     C215     CTL2    -0.180000       12.0110           0
      6566 MEMB     48       DOPC     H15R     HAL2     0.900000E-01   1.00800           0
      6567 MEMB     48       DOPC     H15S     HAL2     0.900000E-01   1.00800           0
      6568 MEMB     48       DOPC     C216     CTL2    -0.180000       12.0110           0
      6569 MEMB     48       DOPC     H16R     HAL2     0.900000E-01   1.00800           0
      6570 MEMB     48       DOPC     H16S     HAL2     0.900000E-01   1.00800           0
      6571 MEMB     48       DOPC     C217     CTL2    -0.180000       12.0110           0
      6572 MEMB     48       DOPC     H17R     HAL2     0.900000E-01   1.00800           0
      6573 MEMB     48       DOPC     H17S     HAL2     0.900000E-01   1.00800           0
      6574 MEMB     48       DOPC     C218     CTL3    -0.270000       12.0110           0
      6575 MEMB     48       DOPC     H18R     HAL3     0.900000E-01   1.00800           0
      6576 MEMB     48       DOPC     H18S     HAL3     0.900000E-01   1.00800           0
      6577 MEMB     48       DOPC     H18T     HAL3     0.900000E-01   1.00800           0
      6578 MEMB     48       DOPC     C33      CTL2    -0.180000       12.0110           0
      6579 MEMB     48       DOPC     H3X      HAL2     0.900000E-01   1.00800           0
      6580 MEMB     48       DOPC     H3Y      HAL2     0.900000E-01   1.00800           0
      6581 MEMB     48       DOPC     C34      CTL2    -0.180000       12.0110           0
      6582 MEMB     48       DOPC     H4X      HAL2     0.900000E-01   1.00800           0
      6583 MEMB     48       DOPC     H4Y      HAL2     0.900000E-01   1.00800           0
      6584 MEMB     48       DOPC     C35      CTL2    -0.180000       12.0110           0
      6585 MEMB     48       DOPC     H5X      HAL2     0.900000E-01   1.00800           0
      6586 MEMB     48       DOPC     H5Y      HAL2     0.900000E-01   1.00800           0
      6587 MEMB     48       DOPC     C36      CTL2    -0.180000       12.0110           0
      6588 MEMB     48       DOPC     H6X      HAL2     0.900000E-01   1.00800           0
      6589 MEMB     48       DOPC     H6Y      HAL2     0.900000E-01   1.00800           0
      6590 MEMB     48       DOPC     C37      CTL2    -0.180000       12.0110           0
      6591 MEMB     48       DOPC     H7X      HAL2     0.900000E-01   1.00800           0
      6592 MEMB     48       DOPC     H7Y      HAL2     0.900000E-01   1.00800           0
      6593 MEMB     48       DOPC     C38      CTL2    -0.180000       12.0110           0
      6594 MEMB     48       DOPC     H8X      HAL2     0.900000E-01   1.00800           0
      6595 MEMB     48       DOPC     H8Y      HAL2     0.900000E-01   1.00800           0
      6596 MEMB     48       DOPC     C39      CEL1    -0.150000       12.0110           0
      6597 MEMB     48       DOPC     H9X      HEL1     0.150000       1.00800           0
      6598 MEMB     48       DOPC     C310     CEL1    -0.150000       12.0110           0
      6599 MEMB     48       DOPC     H10X     HEL1     0.150000       1.00800           0
      6600 MEMB     48       DOPC     C311     CTL2    -0.180000       12.0110           0
      6601 MEMB     48       DOPC     H11X     HAL2     0.900000E-01   1.00800           0
      6602 MEMB     48       DOPC     H11Y     HAL2     0.900000E-01   1.00800           0
      6603 MEMB     48       DOPC     C312     CTL2    -0.180000       12.0110           0
      6604 MEMB     48       DOPC     H12X     HAL2     0.900000E-01   1.00800           0
      6605 MEMB     48       DOPC     H12Y     HAL2     0.900000E-01   1.00800           0
      6606 MEMB     48       DOPC     C313     CTL2    -0.180000       12.0110           0
      6607 MEMB     48       DOPC     H13X     HAL2     0.900000E-01   1.00800           0
      6608 MEMB     48       DOPC     H13Y     HAL2     0.900000E-01   1.00800           0
      6609 MEMB     48       DOPC     C314     CTL2    -0.180000       12.0110           0
      6610 MEMB     48       DOPC     H14X     HAL2     0.900000E-01   1.00800           0
      6611 MEMB     48       DOPC     H14Y     HAL2     0.900000E-01   1.00800           0
      6612 MEMB     48       DOPC     C315     CTL2    -0.180000       12.0110           0
      6613 MEMB     48       DOPC     H15X     HAL2     0.900000E-01   1.00800           0
      6614 MEMB     48       DOPC     H15Y     HAL2     0.900000E-01   1.00800           0
      6615 MEMB     48       DOPC     C316     CTL2    -0.180000       12.0110           0
      6616 MEMB     48       DOPC     H16X     HAL2     0.900000E-01   1.00800           0
      6617 MEMB     48       DOPC     H16Y     HAL2     0.900000E-01   1.00800           0
      6618 MEMB     48       DOPC     C317     CTL2    -0.180000       12.0110           0
      6619 MEMB     48       DOPC     H17X     HAL2     0.900000E-01   1.00800           0
      6620 MEMB     48       DOPC     H17Y     HAL2     0.900000E-01   1.00800           0
      6621 MEMB     48       DOPC     C318     CTL3    -0.270000       12.0110           0
      6622 MEMB     48       DOPC     H18X     HAL3     0.900000E-01   1.00800           0
      6623 MEMB     48       DOPC     H18Y     HAL3     0.900000E-01   1.00800           0
      6624 MEMB     48       DOPC     H18Z     HAL3     0.900000E-01   1.00800           0
      6625 MEMB     49       DOPC     N        NTL     -0.600000       14.0070           0
      6626 MEMB     49       DOPC     C12      CTL2    -0.100000       12.0110           0
      6627 MEMB     49       DOPC     H12A     HL       0.250000       1.00800           0
      6628 MEMB     49       DOPC     H12B     HL       0.250000       1.00800           0
      6629 MEMB     49       DOPC     C13      CTL5    -0.350000       12.0110           0
      6630 MEMB     49       DOPC     H13A     HL       0.250000       1.00800           0
      6631 MEMB     49       DOPC     H13B     HL       0.250000       1.00800           0
      6632 MEMB     49       DOPC     H13C     HL       0.250000       1.00800           0
      6633 MEMB     49       DOPC     C14      CTL5    -0.350000       12.0110           0
      6634 MEMB     49       DOPC     H14A     HL       0.250000       1.00800           0
      6635 MEMB     49       DOPC     H14B     HL       0.250000       1.00800           0
      6636 MEMB     49       DOPC     H14C     HL       0.250000       1.00800           0
      6637 MEMB     49       DOPC     C15      CTL5    -0.350000       12.0110           0
      6638 MEMB     49       DOPC     H15A     HL       0.250000       1.00800           0
      6639 MEMB     49       DOPC     H15B     HL       0.250000       1.00800           0
      6640 MEMB     49       DOPC     H15C     HL       0.250000       1.00800           0
      6641 MEMB     49       DOPC     C11      CTL2    -0.800000E-01   12.0110           0
      6642 MEMB     49       DOPC     H11A     HAL2     0.900000E-01   1.00800           0
      6643 MEMB     49       DOPC     H11B     HAL2     0.900000E-01   1.00800           0
      6644 MEMB     49       DOPC     P        PL        1.50000       30.9740           0
      6645 MEMB     49       DOPC     O13      O2L     -0.780000       15.9994           0
      6646 MEMB     49       DOPC     O14      O2L     -0.780000       15.9994           0
      6647 MEMB     49       DOPC     O12      OSLP    -0.570000       15.9994           0
      6648 MEMB     49       DOPC     O11      OSLP    -0.570000       15.9994           0
      6649 MEMB     49       DOPC     C1       CTL2    -0.800000E-01   12.0110           0
      6650 MEMB     49       DOPC     HA       HAL2     0.900000E-01   1.00800           0
      6651 MEMB     49       DOPC     HB       HAL2     0.900000E-01   1.00800           0
      6652 MEMB     49       DOPC     C2       CTL1     0.170000       12.0110           0
      6653 MEMB     49       DOPC     HS       HAL1     0.900000E-01   1.00800           0
      6654 MEMB     49       DOPC     O21      OSL     -0.490000       15.9994           0
      6655 MEMB     49       DOPC     C21      CL       0.900000       12.0110           0
      6656 MEMB     49       DOPC     O22      OBL     -0.630000       15.9994           0
      6657 MEMB     49       DOPC     C22      CTL2    -0.220000       12.0110           0
      6658 MEMB     49       DOPC     H2R      HAL2     0.900000E-01   1.00800           0
      6659 MEMB     49       DOPC     H2S      HAL2     0.900000E-01   1.00800           0
      6660 MEMB     49       DOPC     C3       CTL2     0.800000E-01   12.0110           0
      6661 MEMB     49       DOPC     HX       HAL2     0.900000E-01   1.00800           0
      6662 MEMB     49       DOPC     HY       HAL2     0.900000E-01   1.00800           0
      6663 MEMB     49       DOPC     O31      OSL     -0.490000       15.9994           0
      6664 MEMB     49       DOPC     C31      CL       0.900000       12.0110           0
      6665 MEMB     49       DOPC     O32      OBL     -0.630000       15.9994           0
      6666 MEMB     49       DOPC     C32      CTL2    -0.220000       12.0110           0
      6667 MEMB     49       DOPC     H2X      HAL2     0.900000E-01   1.00800           0
      6668 MEMB     49       DOPC     H2Y      HAL2     0.900000E-01   1.00800           0
      6669 MEMB     49       DOPC     C23      CTL2    -0.180000       12.0110           0
      6670 MEMB     49       DOPC     H3R      HAL2     0.900000E-01   1.00800           0
      6671 MEMB     49       DOPC     H3S      HAL2     0.900000E-01   1.00800           0
      6672 MEMB     49       DOPC     C24      CTL2    -0.180000       12.0110           0
      6673 MEMB     49       DOPC     H4R      HAL2     0.900000E-01   1.00800           0
      6674 MEMB     49       DOPC     H4S      HAL2     0.900000E-01   1.00800           0
      6675 MEMB     49       DOPC     C25      CTL2    -0.180000       12.0110           0
      6676 MEMB     49       DOPC     H5R      HAL2     0.900000E-01   1.00800           0
      6677 MEMB     49       DOPC     H5S      HAL2     0.900000E-01   1.00800           0
      6678 MEMB     49       DOPC     C26      CTL2    -0.180000       12.0110           0
      6679 MEMB     49       DOPC     H6R      HAL2     0.900000E-01   1.00800           0
      6680 MEMB     49       DOPC     H6S      HAL2     0.900000E-01   1.00800           0
      6681 MEMB     49       DOPC     C27      CTL2    -0.180000       12.0110           0
      6682 MEMB     49       DOPC     H7R      HAL2     0.900000E-01   1.00800           0
      6683 MEMB     49       DOPC     H7S      HAL2     0.900000E-01   1.00800           0
      6684 MEMB     49       DOPC     C28      CTL2    -0.180000       12.0110           0
      6685 MEMB     49       DOPC     H8R      HAL2     0.900000E-01   1.00800           0
      6686 MEMB     49       DOPC     H8S      HAL2     0.900000E-01   1.00800           0
      6687 MEMB     49       DOPC     C29      CEL1    -0.150000       12.0110           0
      6688 MEMB     49       DOPC     H9R      HEL1     0.150000       1.00800           0
      6689 MEMB     49       DOPC     C210     CEL1    -0.150000       12.0110           0
      6690 MEMB     49       DOPC     H10R     HEL1     0.150000       1.00800           0
      6691 MEMB     49       DOPC     C211     CTL2    -0.180000       12.0110           0
      6692 MEMB     49       DOPC     H11R     HAL2     0.900000E-01   1.00800           0
      6693 MEMB     49       DOPC     H11S     HAL2     0.900000E-01   1.00800           0
      6694 MEMB     49       DOPC     C212     CTL2    -0.180000       12.0110           0
      6695 MEMB     49       DOPC     H12R     HAL2     0.900000E-01   1.00800           0
      6696 MEMB     49       DOPC     H12S     HAL2     0.900000E-01   1.00800           0
      6697 MEMB     49       DOPC     C213     CTL2    -0.180000       12.0110           0
      6698 MEMB     49       DOPC     H13R     HAL2     0.900000E-01   1.00800           0
      6699 MEMB     49       DOPC     H13S     HAL2     0.900000E-01   1.00800           0
      6700 MEMB     49       DOPC     C214     CTL2    -0.180000       12.0110           0
      6701 MEMB     49       DOPC     H14R     HAL2     0.900000E-01   1.00800           0
      6702 MEMB     49       DOPC     H14S     HAL2     0.900000E-01   1.00800           0
      6703 MEMB     49       DOPC     C215     CTL2    -0.180000       12.0110           0
      6704 MEMB     49       DOPC     H15R     HAL2     0.900000E-01   1.00800           0
      6705 MEMB     49       DOPC     H15S     HAL2     0.900000E-01   1.00800           0
      6706 MEMB     49       DOPC     C216     CTL2    -0.180000       12.0110           0
      6707 MEMB     49       DOPC     H16R     HAL2     0.900000E-01   1.00800           0
      6708 MEMB     49       DOPC     H16S     HAL2     0.900000E-01   1.00800           0
      6709 MEMB     49       DOPC     C217     CTL2    -0.180000       12.0110           0
      6710 MEMB     49       DOPC     H17R     HAL2     0.900000E-01   1.00800           0
      6711 MEMB     49       DOPC     H17S     HAL2     0.900000E-01   1.00800           0
      6712 MEMB     49       DOPC     C218     CTL3    -0.270000       12.0110           0
      6713 MEMB     49       DOPC     H18R     HAL3     0.900000E-01   1.00800           0
      6714 MEMB     49       DOPC     H18S     HAL3     0.900000E-01   1.00800           0
      6715 MEMB     49       DOPC     H18T     HAL3     0.900000E-01   1.00800           0
      6716 MEMB     49       DOPC     C33      CTL2    -0.180000       12.0110           0
      6717 MEMB     49       DOPC     H3X      HAL2     0.900000E-01   1.00800           0
      6718 MEMB     49       DOPC     H3Y      HAL2     0.900000E-01   1.00800           0
      6719 MEMB     49       DOPC     C34      CTL2    -0.180000       12.0110           0
      6720 MEMB     49       DOPC     H4X      HAL2     0.900000E-01   1.00800           0
      6721 MEMB     49       DOPC     H4Y      HAL2     0.900000E-01   1.00800           0
      6722 MEMB     49       DOPC     C35      CTL2    -0.180000       12.0110           0
      6723 MEMB     49       DOPC     H5X      HAL2     0.900000E-01   1.00800           0
      6724 MEMB     49       DOPC     H5Y      HAL2     0.900000E-01   1.00800           0
      6725 MEMB     49       DOPC     C36      CTL2    -0.180000       12.0110           0
      6726 MEMB     49       DOPC     H6X      HAL2     0.900000E-01   1.00800           0
      6727 MEMB     49       DOPC     H6Y      HAL2     0.900000E-01   1.00800           0
      6728 MEMB     49       DOPC     C37      CTL2    -0.180000       12.0110           0
      6729 MEMB     49       DOPC     H7X      HAL2     0.900000E-01   1.00800           0
      6730 MEMB     49       DOPC     H7Y      HAL2     0.900000E-01   1.00800           0
      6731 MEMB     49       DOPC     C38      CTL2    -0.180000       12.0110           0
      6732 MEMB     49       DOPC     H8X      HAL2     0.900000E-01   1.00800           0
      6733 MEMB     49       DOPC     H8Y      HAL2     0.900000E-01   1.00800           0
      6734 MEMB     49       DOPC     C39      CEL1    -0.150000       12.0110           0
      6735 MEMB     49       DOPC     H9X      HEL1     0.150000       1.00800           0
      6736 MEMB     49       DOPC     C310     CEL1    -0.150000       12.0110           0
      6737 MEMB     49       DOPC     H10X     HEL1     0.150000       1.00800           0
      6738 MEMB     49       DOPC     C311     CTL2    -0.180000       12.0110           0
      6739 MEMB     49       DOPC     H11X     HAL2     0.900000E-01   1.00800           0
      6740 MEMB     49       DOPC     H11Y     HAL2     0.900000E-01   1.00800           0
      6741 MEMB     49       DOPC     C312     CTL2    -0.180000       12.0110           0
      6742 MEMB     49       DOPC     H12X     HAL2     0.900000E-01   1.00800           0
      6743 MEMB     49       DOPC     H12Y     HAL2     0.900000E-01   1.00800           0
      6744 MEMB     49       DOPC     C313     CTL2    -0.180000       12.0110           0
      6745 MEMB     49       DOPC     H13X     HAL2     0.900000E-01   1.00800           0
      6746 MEMB     49       DOPC     H13Y     HAL2     0.900000E-01   1.00800           0
      6747 MEMB     49       DOPC     C314     CTL2    -0.180000       12.0110           0
      6748 MEMB     49       DOPC     H14X     HAL2     0.900000E-01   1.00800           0
      6749 MEMB     49       DOPC     H14Y     HAL2     0.900000E-01   1.00800           0
      6750 MEMB     49       DOPC     C315     CTL2    -0.180000       12.0110           0
      6751 MEMB     49       DOPC     H15X     HAL2     0.900000E-01   1.00800           0
      6752 MEMB     49       DOPC     H15Y     HAL2     0.900000E-01   1.00800           0
      6753 MEMB     49       DOPC     C316     CTL2    -0.180000       12.0110           0
      6754 MEMB     49       DOPC     H16X     HAL2     0.900000E-01   1.00800           0
      6755 MEMB     49       DOPC     H16Y     HAL2     0.900000E-01   1.00800           0
      6756 MEMB     49       DOPC     C317     CTL2    -0.180000       12.0110           0
      6757 MEMB     49       DOPC     H17X     HAL2     0.900000E-01   1.00800           0
      6758 MEMB     49       DOPC     H17Y     HAL2     0.900000E-01   1.00800           0
      6759 MEMB     49       DOPC     C318     CTL3    -0.270000       12.0110           0
      6760 MEMB     49       DOPC     H18X     HAL3     0.900000E-01   1.00800           0
      6761 MEMB     49       DOPC     H18Y     HAL3     0.900000E-01   1.00800           0
      6762 MEMB     49       DOPC     H18Z     HAL3     0.900000E-01   1.00800           0
      6763 MEMB     50       DOPC     N        NTL     -0.600000       14.0070           0
      6764 MEMB     50       DOPC     C12      CTL2    -0.100000       12.0110           0
      6765 MEMB     50       DOPC     H12A     HL       0.250000       1.00800           0
      6766 MEMB     50       DOPC     H12B     HL       0.250000       1.00800           0
      6767 MEMB     50       DOPC     C13      CTL5    -0.350000       12.0110           0
      6768 MEMB     50       DOPC     H13A     HL       0.250000       1.00800           0
      6769 MEMB     50       DOPC     H13B     HL       0.250000       1.00800           0
      6770 MEMB     50       DOPC     H13C     HL       0.250000       1.00800           0
      6771 MEMB     50       DOPC     C14      CTL5    -0.350000       12.0110           0
      6772 MEMB     50       DOPC     H14A     HL       0.250000       1.00800           0
      6773 MEMB     50       DOPC     H14B     HL       0.250000       1.00800           0
      6774 MEMB     50       DOPC     H14C     HL       0.250000       1.00800           0
      6775 MEMB     50       DOPC     C15      CTL5    -0.350000       12.0110           0
      6776 MEMB     50       DOPC     H15A     HL       0.250000       1.00800           0
      6777 MEMB     50       DOPC     H15B     HL       0.250000       1.00800           0
      6778 MEMB     50       DOPC     H15C     HL       0.250000       1.00800           0
      6779 MEMB     50       DOPC     C11      CTL2    -0.800000E-01   12.0110           0
      6780 MEMB     50       DOPC     H11A     HAL2     0.900000E-01   1.00800           0
      6781 MEMB     50       DOPC     H11B     HAL2     0.900000E-01   1.00800           0
      6782 MEMB     50       DOPC     P        PL        1.50000       30.9740           0
      6783 MEMB     50       DOPC     O13      O2L     -0.780000       15.9994           0
      6784 MEMB     50       DOPC     O14      O2L     -0.780000       15.9994           0
      6785 MEMB     50       DOPC     O12      OSLP    -0.570000       15.9994           0
      6786 MEMB     50       DOPC     O11      OSLP    -0.570000       15.9994           0
      6787 MEMB     50       DOPC     C1       CTL2    -0.800000E-01   12.0110           0
      6788 MEMB     50       DOPC     HA       HAL2     0.900000E-01   1.00800           0
      6789 MEMB     50       DOPC     HB       HAL2     0.900000E-01   1.00800           0
      6790 MEMB     50       DOPC     C2       CTL1     0.170000       12.0110           0
      6791 MEMB     50       DOPC     HS       HAL1     0.900000E-01   1.00800           0
      6792 MEMB     50       DOPC     O21      OSL     -0.490000       15.9994           0
      6793 MEMB     50       DOPC     C21      CL       0.900000       12.0110           0
      6794 MEMB     50       DOPC     O22      OBL     -0.630000       15.9994           0
      6795 MEMB     50       DOPC     C22      CTL2    -0.220000       12.0110           0
      6796 MEMB     50       DOPC     H2R      HAL2     0.900000E-01   1.00800           0
      6797 MEMB     50       DOPC     H2S      HAL2     0.900000E-01   1.00800           0
      6798 MEMB     50       DOPC     C3       CTL2     0.800000E-01   12.0110           0
      6799 MEMB     50       DOPC     HX       HAL2     0.900000E-01   1.00800           0
      6800 MEMB     50       DOPC     HY       HAL2     0.900000E-01   1.00800           0
      6801 MEMB     50       DOPC     O31      OSL     -0.490000       15.9994           0
      6802 MEMB     50       DOPC     C31      CL       0.900000       12.0110           0
      6803 MEMB     50       DOPC     O32      OBL     -0.630000       15.9994           0
      6804 MEMB     50       DOPC     C32      CTL2    -0.220000       12.0110           0
      6805 MEMB     50       DOPC     H2X      HAL2     0.900000E-01   1.00800           0
      6806 MEMB     50       DOPC     H2Y      HAL2     0.900000E-01   1.00800           0
      6807 MEMB     50       DOPC     C23      CTL2    -0.180000       12.0110           0
      6808 MEMB     50       DOPC     H3R      HAL2     0.900000E-01   1.00800           0
      6809 MEMB     50       DOPC     H3S      HAL2     0.900000E-01   1.00800           0
      6810 MEMB     50       DOPC     C24      CTL2    -0.180000       12.0110           0
      6811 MEMB     50       DOPC     H4R      HAL2     0.900000E-01   1.00800           0
      6812 MEMB     50       DOPC     H4S      HAL2     0.900000E-01   1.00800           0
      6813 MEMB     50       DOPC     C25      CTL2    -0.180000       12.0110           0
      6814 MEMB     50       DOPC     H5R      HAL2     0.900000E-01   1.00800           0
      6815 MEMB     50       DOPC     H5S      HAL2     0.900000E-01   1.00800           0
      6816 MEMB     50       DOPC     C26      CTL2    -0.180000       12.0110           0
      6817 MEMB     50       DOPC     H6R      HAL2     0.900000E-01   1.00800           0
      6818 MEMB     50       DOPC     H6S      HAL2     0.900000E-01   1.00800           0
      6819 MEMB     50       DOPC     C27      CTL2    -0.180000       12.0110           0
      6820 MEMB     50       DOPC     H7R      HAL2     0.900000E-01   1.00800           0
      6821 MEMB     50       DOPC     H7S      HAL2     0.900000E-01   1.00800           0
      6822 MEMB     50       DOPC     C28      CTL2    -0.180000       12.0110           0
      6823 MEMB     50       DOPC     H8R      HAL2     0.900000E-01   1.00800           0
      6824 MEMB     50       DOPC     H8S      HAL2     0.900000E-01   1.00800           0
      6825 MEMB     50       DOPC     C29      CEL1    -0.150000       12.0110           0
      6826 MEMB     50       DOPC     H9R      HEL1     0.150000       1.00800           0
      6827 MEMB     50       DOPC     C210     CEL1    -0.150000       12.0110           0
      6828 MEMB     50       DOPC     H10R     HEL1     0.150000       1.00800           0
      6829 MEMB     50       DOPC     C211     CTL2    -0.180000       12.0110           0
      6830 MEMB     50       DOPC     H11R     HAL2     0.900000E-01   1.00800           0
      6831 MEMB     50       DOPC     H11S     HAL2     0.900000E-01   1.00800           0
      6832 MEMB     50       DOPC     C212     CTL2    -0.180000       12.0110           0
      6833 MEMB     50       DOPC     H12R     HAL2     0.900000E-01   1.00800           0
      6834 MEMB     50       DOPC     H12S     HAL2     0.900000E-01   1.00800           0
      6835 MEMB     50       DOPC     C213     CTL2    -0.180000       12.0110           0
      6836 MEMB     50       DOPC     H13R     HAL2     0.900000E-01   1.00800           0
      6837 MEMB     50       DOPC     H13S     HAL2     0.900000E-01   1.00800           0
      6838 MEMB     50       DOPC     C214     CTL2    -0.180000       12.0110           0
      6839 MEMB     50       DOPC     H14R     HAL2     0.900000E-01   1.00800           0
      6840 MEMB     50       DOPC     H14S     HAL2     0.900000E-01   1.00800           0
      6841 MEMB     50       DOPC     C215     CTL2    -0.180000       12.0110           0
      6842 MEMB     50       DOPC     H15R     HAL2     0.900000E-01   1.00800           0
      6843 MEMB     50       DOPC     H15S     HAL2     0.900000E-01   1.00800           0
      6844 MEMB     50       DOPC     C216     CTL2    -0.180000       12.0110           0
      6845 MEMB     50       DOPC     H16R     HAL2     0.900000E-01   1.00800           0
      6846 MEMB     50       DOPC     H16S     HAL2     0.900000E-01   1.00800           0
      6847 MEMB     50       DOPC     C217     CTL2    -0.180000       12.0110           0
      6848 MEMB     50       DOPC     H17R     HAL2     0.900000E-01   1.00800           0
      6849 MEMB     50       DOPC     H17S     HAL2     0.900000E-01   1.00800           0
      6850 MEMB     50       DOPC     C218     CTL3    -0.270000       12.0110           0
      6851 MEMB     50       DOPC     H18R     HAL3     0.900000E-01   1.00800           0
      6852 MEMB     50       DOPC     H18S     HAL3     0.900000E-01   1.00800           0
      6853 MEMB     50       DOPC     H18T     HAL3     0.900000E-01   1.00800           0
      6854 MEMB     50       DOPC     C33      CTL2    -0.180000       12.0110           0
      6855 MEMB     50       DOPC     H3X      HAL2     0.900000E-01   1.00800           0
      6856 MEMB     50       DOPC     H3Y      HAL2     0.900000E-01   1.00800           0
      6857 MEMB     50       DOPC     C34      CTL2    -0.180000       12.0110           0
      6858 MEMB     50       DOPC     H4X      HAL2     0.900000E-01   1.00800           0
      6859 MEMB     50       DOPC     H4Y      HAL2     0.900000E-01   1.00800           0
      6860 MEMB     50       DOPC     C35      CTL2    -0.180000       12.0110           0
      6861 MEMB     50       DOPC     H5X      HAL2     0.900000E-01   1.00800           0
      6862 MEMB     50       DOPC     H5Y      HAL2     0.900000E-01   1.00800           0
      6863 MEMB     50       DOPC     C36      CTL2    -0.180000       12.0110           0
      6864 MEMB     50       DOPC     H6X      HAL2     0.900000E-01   1.00800           0
      6865 MEMB     50       DOPC     H6Y      HAL2     0.900000E-01   1.00800           0
      6866 MEMB     50       DOPC     C37      CTL2    -0.180000       12.0110           0
      6867 MEMB     50       DOPC     H7X      HAL2     0.900000E-01   1.00800           0
      6868 MEMB     50       DOPC     H7Y      HAL2     0.900000E-01   1.00800           0
      6869 MEMB     50       DOPC     C38      CTL2    -0.180000       12.0110           0
      6870 MEMB     50       DOPC     H8X      HAL2     0.900000E-01   1.00800           0
      6871 MEMB     50       DOPC     H8Y      HAL2     0.900000E-01   1.00800           0
      6872 MEMB     50       DOPC     C39      CEL1    -0.150000       12.0110           0
      6873 MEMB     50       DOPC     H9X      HEL1     0.150000       1.00800           0
      6874 MEMB     50       DOPC     C310     CEL1    -0.150000       12.0110           0
      6875 MEMB     50       DOPC     H10X     HEL1     0.150000       1.00800           0
      6876 MEMB     50       DOPC     C311     CTL2    -0.180000       12.0110           0
      6877 MEMB     50       DOPC     H11X     HAL2     0.900000E-01   1.00800           0
      6878 MEMB     50       DOPC     H11Y     HAL2     0.900000E-01   1.00800           0
      6879 MEMB     50       DOPC     C312     CTL2    -0.180000       12.0110           0
      6880 MEMB     50       DOPC     H12X     HAL2     0.900000E-01   1.00800           0
      6881 MEMB     50       DOPC     H12Y     HAL2     0.900000E-01   1.00800           0
      6882 MEMB     50       DOPC     C313     CTL2    -0.180000       12.0110           0
      6883 MEMB     50       DOPC     H13X     HAL2     0.900000E-01   1.00800           0
      6884 MEMB     50       DOPC     H13Y     HAL2     0.900000E-01   1.00800           0
      6885 MEMB     50       DOPC     C314     CTL2    -0.180000       12.0110           0
      6886 MEMB     50       DOPC     H14X     HAL2     0.900000E-01   1.00800           0
      6887 MEMB     50       DOPC     H14Y     HAL2     0.900000E-01   1.00800           0
      6888 MEMB     50       DOPC     C315     CTL2    -0.180000       12.0110           0
      6889 MEMB     50       DOPC     H15X     HAL2     0.900000E-01   1.00800           0
      6890 MEMB     50       DOPC     H15Y     HAL2     0.900000E-01   1.00800           0
      6891 MEMB     50       DOPC     C316     CTL2    -0.180000       12.0110           0
      6892 MEMB     50       DOPC     H16X     HAL2     0.900000E-01   1.00800           0
      6893 MEMB     50       DOPC     H16Y     HAL2     0.900000E-01   1.00800           0
      6894 MEMB     50       DOPC     C317     CTL2    -0.180000       12.0110           0
      6895 MEMB     50       DOPC     H17X     HAL2     0.900000E-01   1.00800           0
      6896 MEMB     50       DOPC     H17Y     HAL2     0.900000E-01   1.00800           0
      6897 MEMB     50       DOPC     C318     CTL3    -0.270000       12.0110           0
      6898 MEMB     50       DOPC     H18X     HAL3     0.900000E-01   1.00800           0
      6899 MEMB     50       DOPC     H18Y     HAL3     0.900000E-01   1.00800           0
      6900 MEMB     50       DOPC     H18Z     HAL3     0.900000E-01   1.00800           0
      6901 MEMB     51       DOPC     N        NTL     -0.600000       14.0070           0
      6902 MEMB     51       DOPC     C12      CTL2    -0.100000       12.0110           0
      6903 MEMB     51       DOPC     H12A     HL       0.250000       1.00800           0
      6904 MEMB     51       DOPC     H12B     HL       0.250000       1.00800           0
      6905 MEMB     51       DOPC     C13      CTL5    -0.350000       12.0110           0
      6906 MEMB     51       DOPC     H13A     HL       0.250000       1.00800           0
      6907 MEMB     51       DOPC     H13B     HL       0.250000       1.00800           0
      6908 MEMB     51       DOPC     H13C     HL       0.250000       1.00800           0
      6909 MEMB     51       DOPC     C14      CTL5    -0.350000       12.0110           0
      6910 MEMB     51       DOPC     H14A     HL       0.250000       1.00800           0
      6911 MEMB     51       DOPC     H14B     HL       0.250000       1.00800           0
      6912 MEMB     51       DOPC     H14C     HL       0.250000       1.00800           0
      6913 MEMB     51       DOPC     C15      CTL5    -0.350000       12.0110           0
      6914 MEMB     51       DOPC     H15A     HL       0.250000       1.00800           0
      6915 MEMB     51       DOPC     H15B     HL       0.250000       1.00800           0
      6916 MEMB     51       DOPC     H15C     HL       0.250000       1.00800           0
      6917 MEMB     51       DOPC     C11      CTL2    -0.800000E-01   12.0110           0
      6918 MEMB     51       DOPC     H11A     HAL2     0.900000E-01   1.00800           0
      6919 MEMB     51       DOPC     H11B     HAL2     0.900000E-01   1.00800           0
      6920 MEMB     51       DOPC     P        PL        1.50000       30.9740           0
      6921 MEMB     51       DOPC     O13      O2L     -0.780000       15.9994           0
      6922 MEMB     51       DOPC     O14      O2L     -0.780000       15.9994           0
      6923 MEMB     51       DOPC     O12      OSLP    -0.570000       15.9994           0
      6924 MEMB     51       DOPC     O11      OSLP    -0.570000       15.9994           0
      6925 MEMB     51       DOPC     C1       CTL2    -0.800000E-01   12.0110           0
      6926 MEMB     51       DOPC     HA       HAL2     0.900000E-01   1.00800           0
      6927 MEMB     51       DOPC     HB       HAL2     0.900000E-01   1.00800           0
      6928 MEMB     51       DOPC     C2       CTL1     0.170000       12.0110           0
      6929 MEMB     51       DOPC     HS       HAL1     0.900000E-01   1.00800           0
      6930 MEMB     51       DOPC     O21      OSL     -0.490000       15.9994           0
      6931 MEMB     51       DOPC     C21      CL       0.900000       12.0110           0
      6932 MEMB     51       DOPC     O22      OBL     -0.630000       15.9994           0
      6933 MEMB     51       DOPC     C22      CTL2    -0.220000       12.0110           0
      6934 MEMB     51       DOPC     H2R      HAL2     0.900000E-01   1.00800           0
      6935 MEMB     51       DOPC     H2S      HAL2     0.900000E-01   1.00800           0
      6936 MEMB     51       DOPC     C3       CTL2     0.800000E-01   12.0110           0
      6937 MEMB     51       DOPC     HX       HAL2     0.900000E-01   1.00800           0
      6938 MEMB     51       DOPC     HY       HAL2     0.900000E-01   1.00800           0
      6939 MEMB     51       DOPC     O31      OSL     -0.490000       15.9994           0
      6940 MEMB     51       DOPC     C31      CL       0.900000       12.0110           0
      6941 MEMB     51       DOPC     O32      OBL     -0.630000       15.9994           0
      6942 MEMB     51       DOPC     C32      CTL2    -0.220000       12.0110           0
      6943 MEMB     51       DOPC     H2X      HAL2     0.900000E-01   1.00800           0
      6944 MEMB     51       DOPC     H2Y      HAL2     0.900000E-01   1.00800           0
      6945 MEMB     51       DOPC     C23      CTL2    -0.180000       12.0110           0
      6946 MEMB     51       DOPC     H3R      HAL2     0.900000E-01   1.00800           0
      6947 MEMB     51       DOPC     H3S      HAL2     0.900000E-01   1.00800           0
      6948 MEMB     51       DOPC     C24      CTL2    -0.180000       12.0110           0
      6949 MEMB     51       DOPC     H4R      HAL2     0.900000E-01   1.00800           0
      6950 MEMB     51       DOPC     H4S      HAL2     0.900000E-01   1.00800           0
      6951 MEMB     51       DOPC     C25      CTL2    -0.180000       12.0110           0
      6952 MEMB     51       DOPC     H5R      HAL2     0.900000E-01   1.00800           0
      6953 MEMB     51       DOPC     H5S      HAL2     0.900000E-01   1.00800           0
      6954 MEMB     51       DOPC     C26      CTL2    -0.180000       12.0110           0
      6955 MEMB     51       DOPC     H6R      HAL2     0.900000E-01   1.00800           0
      6956 MEMB     51       DOPC     H6S      HAL2     0.900000E-01   1.00800           0
      6957 MEMB     51       DOPC     C27      CTL2    -0.180000       12.0110           0
      6958 MEMB     51       DOPC     H7R      HAL2     0.900000E-01   1.00800           0
      6959 MEMB     51       DOPC     H7S      HAL2     0.900000E-01   1.00800           0
      6960 MEMB     51       DOPC     C28      CTL2    -0.180000       12.0110           0
      6961 MEMB     51       DOPC     H8R      HAL2     0.900000E-01   1.00800           0
      6962 MEMB     51       DOPC     H8S      HAL2     0.900000E-01   1.00800           0
      6963 MEMB     51       DOPC     C29      CEL1    -0.150000       12.0110           0
      6964 MEMB     51       DOPC     H9R      HEL1     0.150000       1.00800           0
      6965 MEMB     51       DOPC     C210     CEL1    -0.150000       12.0110           0
      6966 MEMB     51       DOPC     H10R     HEL1     0.150000       1.00800           0
      6967 MEMB     51       DOPC     C211     CTL2    -0.180000       12.0110           0
      6968 MEMB     51       DOPC     H11R     HAL2     0.900000E-01   1.00800           0
      6969 MEMB     51       DOPC     H11S     HAL2     0.900000E-01   1.00800           0
      6970 MEMB     51       DOPC     C212     CTL2    -0.180000       12.0110           0
      6971 MEMB     51       DOPC     H12R     HAL2     0.900000E-01   1.00800           0
      6972 MEMB     51       DOPC     H12S     HAL2     0.900000E-01   1.00800           0
      6973 MEMB     51       DOPC     C213     CTL2    -0.180000       12.0110           0
      6974 MEMB     51       DOPC     H13R     HAL2     0.900000E-01   1.00800           0
      6975 MEMB     51       DOPC     H13S     HAL2     0.900000E-01   1.00800           0
      6976 MEMB     51       DOPC     C214     CTL2    -0.180000       12.0110           0
      6977 MEMB     51       DOPC     H14R     HAL2     0.900000E-01   1.00800           0
      6978 MEMB     51       DOPC     H14S     HAL2     0.900000E-01   1.00800           0
      6979 MEMB     51       DOPC     C215     CTL2    -0.180000       12.0110           0
      6980 MEMB     51       DOPC     H15R     HAL2     0.900000E-01   1.00800           0
      6981 MEMB     51       DOPC     H15S     HAL2     0.900000E-01   1.00800           0
      6982 MEMB     51       DOPC     C216     CTL2    -0.180000       12.0110           0
      6983 MEMB     51       DOPC     H16R     HAL2     0.900000E-01   1.00800           0
      6984 MEMB     51       DOPC     H16S     HAL2     0.900000E-01   1.00800           0
      6985 MEMB     51       DOPC     C217     CTL2    -0.180000       12.0110           0
      6986 MEMB     51       DOPC     H17R     HAL2     0.900000E-01   1.00800           0
      6987 MEMB     51       DOPC     H17S     HAL2     0.900000E-01   1.00800           0
      6988 MEMB     51       DOPC     C218     CTL3    -0.270000       12.0110           0
      6989 MEMB     51       DOPC     H18R     HAL3     0.900000E-01   1.00800           0
      6990 MEMB     51       DOPC     H18S     HAL3     0.900000E-01   1.00800           0
      6991 MEMB     51       DOPC     H18T     HAL3     0.900000E-01   1.00800           0
      6992 MEMB     51       DOPC     C33      CTL2    -0.180000       12.0110           0
      6993 MEMB     51       DOPC     H3X      HAL2     0.900000E-01   1.00800           0
      6994 MEMB     51       DOPC     H3Y      HAL2     0.900000E-01   1.00800           0
      6995 MEMB     51       DOPC     C34      CTL2    -0.180000       12.0110           0
      6996 MEMB     51       DOPC     H4X      HAL2     0.900000E-01   1.00800           0
      6997 MEMB     51       DOPC     H4Y      HAL2     0.900000E-01   1.00800           0
      6998 MEMB     51       DOPC     C35      CTL2    -0.180000       12.0110           0
      6999 MEMB     51       DOPC     H5X      HAL2     0.900000E-01   1.00800           0
      7000 MEMB     51       DOPC     H5Y      HAL2     0.900000E-01   1.00800           0
      7001 MEMB     51       DOPC     C36      CTL2    -0.180000       12.0110           0
      7002 MEMB     51       DOPC     H6X      HAL2     0.900000E-01   1.00800           0
      7003 MEMB     51       DOPC     H6Y      HAL2     0.900000E-01   1.00800           0
      7004 MEMB     51       DOPC     C37      CTL2    -0.180000       12.0110           0
      7005 MEMB     51       DOPC     H7X      HAL2     0.900000E-01   1.00800           0
      7006 MEMB     51       DOPC     H7Y      HAL2     0.900000E-01   1.00800           0
      7007 MEMB     51       DOPC     C38      CTL2    -0.180000       12.0110           0
      7008 MEMB     51       DOPC     H8X      HAL2     0.900000E-01   1.00800           0
      7009 MEMB     51       DOPC     H8Y      HAL2     0.900000E-01   1.00800           0
      7010 MEMB     51       DOPC     C39      CEL1    -0.150000       12.0110           0
      7011 MEMB     51       DOPC     H9X      HEL1     0.150000       1.00800           0
      7012 MEMB     51       DOPC     C310     CEL1    -0.150000       12.0110           0
      7013 MEMB     51       DOPC     H10X     HEL1     0.150000       1.00800           0
      7014 MEMB     51       DOPC     C311     CTL2    -0.180000       12.0110           0
      7015 MEMB     51       DOPC     H11X     HAL2     0.900000E-01   1.00800           0
      7016 MEMB     51       DOPC     H11Y     HAL2     0.900000E-01   1.00800           0
      7017 MEMB     51       DOPC     C312     CTL2    -0.180000       12.0110           0
      7018 MEMB     51       DOPC     H12X     HAL2     0.900000E-01   1.00800           0
      7019 MEMB     51       DOPC     H12Y     HAL2     0.900000E-01   1.00800           0
      7020 MEMB     51       DOPC     C313     CTL2    -0.180000       12.0110           0
      7021 MEMB     51       DOPC     H13X     HAL2     0.900000E-01   1.00800           0
      7022 MEMB     51       DOPC     H13Y     HAL2     0.900000E-01   1.00800           0
      7023 MEMB     51       DOPC     C314     CTL2    -0.180000       12.0110           0
      7024 MEMB     51       DOPC     H14X     HAL2     0.900000E-01   1.00800           0
      7025 MEMB     51       DOPC     H14Y     HAL2     0.900000E-01   1.00800           0
      7026 MEMB     51       DOPC     C315     CTL2    -0.180000       12.0110           0
      7027 MEMB     51       DOPC     H15X     HAL2     0.900000E-01   1.00800           0
      7028 MEMB     51       DOPC     H15Y     HAL2     0.900000E-01   1.00800           0
      7029 MEMB     51       DOPC     C316     CTL2    -0.180000       12.0110           0
      7030 MEMB     51       DOPC     H16X     HAL2     0.900000E-01   1.00800           0
      7031 MEMB     51       DOPC     H16Y     HAL2     0.900000E-01   1.00800           0
      7032 MEMB     51       DOPC     C317     CTL2    -0.180000       12.0110           0
      7033 MEMB     51       DOPC     H17X     HAL2     0.900000E-01   1.00800           0
      7034 MEMB     51       DOPC     H17Y     HAL2     0.900000E-01   1.00800           0
      7035 MEMB     51       DOPC     C318     CTL3    -0.270000       12.0110           0
      7036 MEMB     51       DOPC     H18X     HAL3     0.900000E-01   1.00800           0
      7037 MEMB     51       DOPC     H18Y     HAL3     0.900000E-01   1.00800           0
      7038 MEMB     51       DOPC     H18Z     HAL3     0.900000E-01   1.00800           0
      7039 MEMB     52       DOPC     N        NTL     -0.600000       14.0070           0
      7040 MEMB     52       DOPC     C12      CTL2    -0.100000       12.0110           0
      7041 MEMB     52       DOPC     H12A     HL       0.250000       1.00800           0
      7042 MEMB     52       DOPC     H12B     HL       0.250000       1.00800           0
      7043 MEMB     52       DOPC     C13      CTL5    -0.350000       12.0110           0
      7044 MEMB     52       DOPC     H13A     HL       0.250000       1.00800           0
      7045 MEMB     52       DOPC     H13B     HL       0.250000       1.00800           0
      7046 MEMB     52       DOPC     H13C     HL       0.250000       1.00800           0
      7047 MEMB     52       DOPC     C14      CTL5    -0.350000       12.0110           0
      7048 MEMB     52       DOPC     H14A     HL       0.250000       1.00800           0
      7049 MEMB     52       DOPC     H14B     HL       0.250000       1.00800           0
      7050 MEMB     52       DOPC     H14C     HL       0.250000       1.00800           0
      7051 MEMB     52       DOPC     C15      CTL5    -0.350000       12.0110           0
      7052 MEMB     52       DOPC     H15A     HL       0.250000       1.00800           0
      7053 MEMB     52       DOPC     H15B     HL       0.250000       1.00800           0
      7054 MEMB     52       DOPC     H15C     HL       0.250000       1.00800           0
      7055 MEMB     52       DOPC     C11      CTL2    -0.800000E-01   12.0110           0
      7056 MEMB     52       DOPC     H11A     HAL2     0.900000E-01   1.00800           0
      7057 MEMB     52       DOPC     H11B     HAL2     0.900000E-01   1.00800           0
      7058 MEMB     52       DOPC     P        PL        1.50000       30.9740           0
      7059 MEMB     52       DOPC     O13      O2L     -0.780000       15.9994           0
      7060 MEMB     52       DOPC     O14      O2L     -0.780000       15.9994           0
      7061 MEMB     52       DOPC     O12      OSLP    -0.570000       15.9994           0
      7062 MEMB     52       DOPC     O11      OSLP    -0.570000       15.9994           0
      7063 MEMB     52       DOPC     C1       CTL2    -0.800000E-01   12.0110           0
      7064 MEMB     52       DOPC     HA       HAL2     0.900000E-01   1.00800           0
      7065 MEMB     52       DOPC     HB       HAL2     0.900000E-01   1.00800           0
      7066 MEMB     52       DOPC     C2       CTL1     0.170000       12.0110           0
      7067 MEMB     52       DOPC     HS       HAL1     0.900000E-01   1.00800           0
      7068 MEMB     52       DOPC     O21      OSL     -0.490000       15.9994           0
      7069 MEMB     52       DOPC     C21      CL       0.900000       12.0110           0
      7070 MEMB     52       DOPC     O22      OBL     -0.630000       15.9994           0
      7071 MEMB     52       DOPC     C22      CTL2    -0.220000       12.0110           0
      7072 MEMB     52       DOPC     H2R      HAL2     0.900000E-01   1.00800           0
      7073 MEMB     52       DOPC     H2S      HAL2     0.900000E-01   1.00800           0
      7074 MEMB     52       DOPC     C3       CTL2     0.800000E-01   12.0110           0
      7075 MEMB     52       DOPC     HX       HAL2     0.900000E-01   1.00800           0
      7076 MEMB     52       DOPC     HY       HAL2     0.900000E-01   1.00800           0
      7077 MEMB     52       DOPC     O31      OSL     -0.490000       15.9994           0
      7078 MEMB     52       DOPC     C31      CL       0.900000       12.0110           0
      7079 MEMB     52       DOPC     O32      OBL     -0.630000       15.9994           0
      7080 MEMB     52       DOPC     C32      CTL2    -0.220000       12.0110           0
      7081 MEMB     52       DOPC     H2X      HAL2     0.900000E-01   1.00800           0
      7082 MEMB     52       DOPC     H2Y      HAL2     0.900000E-01   1.00800           0
      7083 MEMB     52       DOPC     C23      CTL2    -0.180000       12.0110           0
      7084 MEMB     52       DOPC     H3R      HAL2     0.900000E-01   1.00800           0
      7085 MEMB     52       DOPC     H3S      HAL2     0.900000E-01   1.00800           0
      7086 MEMB     52       DOPC     C24      CTL2    -0.180000       12.0110           0
      7087 MEMB     52       DOPC     H4R      HAL2     0.900000E-01   1.00800           0
      7088 MEMB     52       DOPC     H4S      HAL2     0.900000E-01   1.00800           0
      7089 MEMB     52       DOPC     C25      CTL2    -0.180000       12.0110           0
      7090 MEMB     52       DOPC     H5R      HAL2     0.900000E-01   1.00800           0
      7091 MEMB     52       DOPC     H5S      HAL2     0.900000E-01   1.00800           0
      7092 MEMB     52       DOPC     C26      CTL2    -0.180000       12.0110           0
      7093 MEMB     52       DOPC     H6R      HAL2     0.900000E-01   1.00800           0
      7094 MEMB     52       DOPC     H6S      HAL2     0.900000E-01   1.00800           0
      7095 MEMB     52       DOPC     C27      CTL2    -0.180000       12.0110           0
      7096 MEMB     52       DOPC     H7R      HAL2     0.900000E-01   1.00800           0
      7097 MEMB     52       DOPC     H7S      HAL2     0.900000E-01   1.00800           0
      7098 MEMB     52       DOPC     C28      CTL2    -0.180000       12.0110           0
      7099 MEMB     52       DOPC     H8R      HAL2     0.900000E-01   1.00800           0
      7100 MEMB     52       DOPC     H8S      HAL2     0.900000E-01   1.00800           0
      7101 MEMB     52       DOPC     C29      CEL1    -0.150000       12.0110           0
      7102 MEMB     52       DOPC     H9R      HEL1     0.150000       1.00800           0
      7103 MEMB     52       DOPC     C210     CEL1    -0.150000       12.0110           0
      7104 MEMB     52       DOPC     H10R     HEL1     0.150000       1.00800           0
      7105 MEMB     52       DOPC     C211     CTL2    -0.180000       12.0110           0
      7106 MEMB     52       DOPC     H11R     HAL2     0.900000E-01   1.00800           0
      7107 MEMB     52       DOPC     H11S     HAL2     0.900000E-01   1.00800           0
      7108 MEMB     52       DOPC     C212     CTL2    -0.180000       12.0110           0
      7109 MEMB     52       DOPC     H12R     HAL2     0.900000E-01   1.00800           0
      7110 MEMB     52       DOPC     H12S     HAL2     0.900000E-01   1.00800           0
      7111 MEMB     52       DOPC     C213     CTL2    -0.180000       12.0110           0
      7112 MEMB     52       DOPC     H13R     HAL2     0.900000E-01   1.00800           0
      7113 MEMB     52       DOPC     H13S     HAL2     0.900000E-01   1.00800           0
      7114 MEMB     52       DOPC     C214     CTL2    -0.180000       12.0110           0
      7115 MEMB     52       DOPC     H14R     HAL2     0.900000E-01   1.00800           0
      7116 MEMB     52       DOPC     H14S     HAL2     0.900000E-01   1.00800           0
      7117 MEMB     52       DOPC     C215     CTL2    -0.180000       12.0110           0
      7118 MEMB     52       DOPC     H15R     HAL2     0.900000E-01   1.00800           0
      7119 MEMB     52       DOPC     H15S     HAL2     0.900000E-01   1.00800           0
      7120 MEMB     52       DOPC     C216     CTL2    -0.180000       12.0110           0
      7121 MEMB     52       DOPC     H16R     HAL2     0.900000E-01   1.00800           0
      7122 MEMB     52       DOPC     H16S     HAL2     0.900000E-01   1.00800           0
      7123 MEMB     52       DOPC     C217     CTL2    -0.180000       12.0110           0
      7124 MEMB     52       DOPC     H17R     HAL2     0.900000E-01   1.00800           0
      7125 MEMB     52       DOPC     H17S     HAL2     0.900000E-01   1.00800           0
      7126 MEMB     52       DOPC     C218     CTL3    -0.270000       12.0110           0
      7127 MEMB     52       DOPC     H18R     HAL3     0.900000E-01   1.00800           0
      7128 MEMB     52       DOPC     H18S     HAL3     0.900000E-01   1.00800           0
      7129 MEMB     52       DOPC     H18T     HAL3     0.900000E-01   1.00800           0
      7130 MEMB     52       DOPC     C33      CTL2    -0.180000       12.0110           0
      7131 MEMB     52       DOPC     H3X      HAL2     0.900000E-01   1.00800           0
      7132 MEMB     52       DOPC     H3Y      HAL2     0.900000E-01   1.00800           0
      7133 MEMB     52       DOPC     C34      CTL2    -0.180000       12.0110           0
      7134 MEMB     52       DOPC     H4X      HAL2     0.900000E-01   1.00800           0
      7135 MEMB     52       DOPC     H4Y      HAL2     0.900000E-01   1.00800           0
      7136 MEMB     52       DOPC     C35      CTL2    -0.180000       12.0110           0
      7137 MEMB     52       DOPC     H5X      HAL2     0.900000E-01   1.00800           0
      7138 MEMB     52       DOPC     H5Y      HAL2     0.900000E-01   1.00800           0
      7139 MEMB     52       DOPC     C36      CTL2    -0.180000       12.0110           0
      7140 MEMB     52       DOPC     H6X      HAL2     0.900000E-01   1.00800           0
      7141 MEMB     52       DOPC     H6Y      HAL2     0.900000E-01   1.00800           0
      7142 MEMB     52       DOPC     C37      CTL2    -0.180000       12.0110           0
      7143 MEMB     52       DOPC     H7X      HAL2     0.900000E-01   1.00800           0
      7144 MEMB     52       DOPC     H7Y      HAL2     0.900000E-01   1.00800           0
      7145 MEMB     52       DOPC     C38      CTL2    -0.180000       12.0110           0
      7146 MEMB     52       DOPC     H8X      HAL2     0.900000E-01   1.00800           0
      7147 MEMB     52       DOPC     H8Y      HAL2     0.900000E-01   1.00800           0
      7148 MEMB     52       DOPC     C39      CEL1    -0.150000       12.0110           0
      7149 MEMB     52       DOPC     H9X      HEL1     0.150000       1.00800           0
      7150 MEMB     52       DOPC     C310     CEL1    -0.150000       12.0110           0
      7151 MEMB     52       DOPC     H10X     HEL1     0.150000       1.00800           0
      7152 MEMB     52       DOPC     C311     CTL2    -0.180000       12.0110           0
      7153 MEMB     52       DOPC     H11X     HAL2     0.900000E-01   1.00800           0
      7154 MEMB     52       DOPC     H11Y     HAL2     0.900000E-01   1.00800           0
      7155 MEMB     52       DOPC     C312     CTL2    -0.180000       12.0110           0
      7156 MEMB     52       DOPC     H12X     HAL2     0.900000E-01   1.00800           0
      7157 MEMB     52       DOPC     H12Y     HAL2     0.900000E-01   1.00800           0
      7158 MEMB     52       DOPC     C313     CTL2    -0.180000       12.0110           0
      7159 MEMB     52       DOPC     H13X     HAL2     0.900000E-01   1.00800           0
      7160 MEMB     52       DOPC     H13Y     HAL2     0.900000E-01   1.00800           0
      7161 MEMB     52       DOPC     C314     CTL2    -0.180000       12.0110           0
      7162 MEMB     52       DOPC     H14X     HAL2     0.900000E-01   1.00800           0
      7163 MEMB     52       DOPC     H14Y     HAL2     0.900000E-01   1.00800           0
      7164 MEMB     52       DOPC     C315     CTL2    -0.180000       12.0110           0
      7165 MEMB     52       DOPC     H15X     HAL2     0.900000E-01   1.00800           0
      7166 MEMB     52       DOPC     H15Y     HAL2     0.900000E-01   1.00800           0
      7167 MEMB     52       DOPC     C316     CTL2    -0.180000       12.0110           0
      7168 MEMB     52       DOPC     H16X     HAL2     0.900000E-01   1.00800           0
      7169 MEMB     52       DOPC     H16Y     HAL2     0.900000E-01   1.00800           0
      7170 MEMB     52       DOPC     C317     CTL2    -0.180000       12.0110           0
      7171 MEMB     52       DOPC     H17X     HAL2     0.900000E-01   1.00800           0
      7172 MEMB     52       DOPC     H17Y     HAL2     0.900000E-01   1.00800           0
      7173 MEMB     52       DOPC     C318     CTL3    -0.270000       12.0110           0
      7174 MEMB     52       DOPC     H18X     HAL3     0.900000E-01   1.00800           0
      7175 MEMB     52       DOPC     H18Y     HAL3     0.900000E-01   1.00800           0
      7176 MEMB     52       DOPC     H18Z     HAL3     0.900000E-01   1.00800           0
      7177 MEMB     53       DOPC     N        NTL     -0.600000       14.0070           0
      7178 MEMB     53       DOPC     C12      CTL2    -0.100000       12.0110           0
      7179 MEMB     53       DOPC     H12A     HL       0.250000       1.00800           0
      7180 MEMB     53       DOPC     H12B     HL       0.250000       1.00800           0
      7181 MEMB     53       DOPC     C13      CTL5    -0.350000       12.0110           0
      7182 MEMB     53       DOPC     H13A     HL       0.250000       1.00800           0
      7183 MEMB     53       DOPC     H13B     HL       0.250000       1.00800           0
      7184 MEMB     53       DOPC     H13C     HL       0.250000       1.00800           0
      7185 MEMB     53       DOPC     C14      CTL5    -0.350000       12.0110           0
      7186 MEMB     53       DOPC     H14A     HL       0.250000       1.00800           0
      7187 MEMB     53       DOPC     H14B     HL       0.250000       1.00800           0
      7188 MEMB     53       DOPC     H14C     HL       0.250000       1.00800           0
      7189 MEMB     53       DOPC     C15      CTL5    -0.350000       12.0110           0
      7190 MEMB     53       DOPC     H15A     HL       0.250000       1.00800           0
      7191 MEMB     53       DOPC     H15B     HL       0.250000       1.00800           0
      7192 MEMB     53       DOPC     H15C     HL       0.250000       1.00800           0
      7193 MEMB     53       DOPC     C11      CTL2    -0.800000E-01   12.0110           0
      7194 MEMB     53       DOPC     H11A     HAL2     0.900000E-01   1.00800           0
      7195 MEMB     53       DOPC     H11B     HAL2     0.900000E-01   1.00800           0
      7196 MEMB     53       DOPC     P        PL        1.50000       30.9740           0
      7197 MEMB     53       DOPC     O13      O2L     -0.780000       15.9994           0
      7198 MEMB     53       DOPC     O14      O2L     -0.780000       15.9994           0
      7199 MEMB     53       DOPC     O12      OSLP    -0.570000       15.9994           0
      7200 MEMB     53       DOPC     O11      OSLP    -0.570000       15.9994           0
      7201 MEMB     53       DOPC     C1       CTL2    -0.800000E-01   12.0110           0
      7202 MEMB     53       DOPC     HA       HAL2     0.900000E-01   1.00800           0
      7203 MEMB     53       DOPC     HB       HAL2     0.900000E-01   1.00800           0
      7204 MEMB     53       DOPC     C2       CTL1     0.170000       12.0110           0
      7205 MEMB     53       DOPC     HS       HAL1     0.900000E-01   1.00800           0
      7206 MEMB     53       DOPC     O21      OSL     -0.490000       15.9994           0
      7207 MEMB     53       DOPC     C21      CL       0.900000       12.0110           0
      7208 MEMB     53       DOPC     O22      OBL     -0.630000       15.9994           0
      7209 MEMB     53       DOPC     C22      CTL2    -0.220000       12.0110           0
      7210 MEMB     53       DOPC     H2R      HAL2     0.900000E-01   1.00800           0
      7211 MEMB     53       DOPC     H2S      HAL2     0.900000E-01   1.00800           0
      7212 MEMB     53       DOPC     C3       CTL2     0.800000E-01   12.0110           0
      7213 MEMB     53       DOPC     HX       HAL2     0.900000E-01   1.00800           0
      7214 MEMB     53       DOPC     HY       HAL2     0.900000E-01   1.00800           0
      7215 MEMB     53       DOPC     O31      OSL     -0.490000       15.9994           0
      7216 MEMB     53       DOPC     C31      CL       0.900000       12.0110           0
      7217 MEMB     53       DOPC     O32      OBL     -0.630000       15.9994           0
      7218 MEMB     53       DOPC     C32      CTL2    -0.220000       12.0110           0
      7219 MEMB     53       DOPC     H2X      HAL2     0.900000E-01   1.00800           0
      7220 MEMB     53       DOPC     H2Y      HAL2     0.900000E-01   1.00800           0
      7221 MEMB     53       DOPC     C23      CTL2    -0.180000       12.0110           0
      7222 MEMB     53       DOPC     H3R      HAL2     0.900000E-01   1.00800           0
      7223 MEMB     53       DOPC     H3S      HAL2     0.900000E-01   1.00800           0
      7224 MEMB     53       DOPC     C24      CTL2    -0.180000       12.0110           0
      7225 MEMB     53       DOPC     H4R      HAL2     0.900000E-01   1.00800           0
      7226 MEMB     53       DOPC     H4S      HAL2     0.900000E-01   1.00800           0
      7227 MEMB     53       DOPC     C25      CTL2    -0.180000       12.0110           0
      7228 MEMB     53       DOPC     H5R      HAL2     0.900000E-01   1.00800           0
      7229 MEMB     53       DOPC     H5S      HAL2     0.900000E-01   1.00800           0
      7230 MEMB     53       DOPC     C26      CTL2    -0.180000       12.0110           0
      7231 MEMB     53       DOPC     H6R      HAL2     0.900000E-01   1.00800           0
      7232 MEMB     53       DOPC     H6S      HAL2     0.900000E-01   1.00800           0
      7233 MEMB     53       DOPC     C27      CTL2    -0.180000       12.0110           0
      7234 MEMB     53       DOPC     H7R      HAL2     0.900000E-01   1.00800           0
      7235 MEMB     53       DOPC     H7S      HAL2     0.900000E-01   1.00800           0
      7236 MEMB     53       DOPC     C28      CTL2    -0.180000       12.0110           0
      7237 MEMB     53       DOPC     H8R      HAL2     0.900000E-01   1.00800           0
      7238 MEMB     53       DOPC     H8S      HAL2     0.900000E-01   1.00800           0
      7239 MEMB     53       DOPC     C29      CEL1    -0.150000       12.0110           0
      7240 MEMB     53       DOPC     H9R      HEL1     0.150000       1.00800           0
      7241 MEMB     53       DOPC     C210     CEL1    -0.150000       12.0110           0
      7242 MEMB     53       DOPC     H10R     HEL1     0.150000       1.00800           0
      7243 MEMB     53       DOPC     C211     CTL2    -0.180000       12.0110           0
      7244 MEMB     53       DOPC     H11R     HAL2     0.900000E-01   1.00800           0
      7245 MEMB     53       DOPC     H11S     HAL2     0.900000E-01   1.00800           0
      7246 MEMB     53       DOPC     C212     CTL2    -0.180000       12.0110           0
      7247 MEMB     53       DOPC     H12R     HAL2     0.900000E-01   1.00800           0
      7248 MEMB     53       DOPC     H12S     HAL2     0.900000E-01   1.00800           0
      7249 MEMB     53       DOPC     C213     CTL2    -0.180000       12.0110           0
      7250 MEMB     53       DOPC     H13R     HAL2     0.900000E-01   1.00800           0
      7251 MEMB     53       DOPC     H13S     HAL2     0.900000E-01   1.00800           0
      7252 MEMB     53       DOPC     C214     CTL2    -0.180000       12.0110           0
      7253 MEMB     53       DOPC     H14R     HAL2     0.900000E-01   1.00800           0
      7254 MEMB     53       DOPC     H14S     HAL2     0.900000E-01   1.00800           0
      7255 MEMB     53       DOPC     C215     CTL2    -0.180000       12.0110           0
      7256 MEMB     53       DOPC     H15R     HAL2     0.900000E-01   1.00800           0
      7257 MEMB     53       DOPC     H15S     HAL2     0.900000E-01   1.00800           0
      7258 MEMB     53       DOPC     C216     CTL2    -0.180000       12.0110           0
      7259 MEMB     53       DOPC     H16R     HAL2     0.900000E-01   1.00800           0
      7260 MEMB     53       DOPC     H16S     HAL2     0.900000E-01   1.00800           0
      7261 MEMB     53       DOPC     C217     CTL2    -0.180000       12.0110           0
      7262 MEMB     53       DOPC     H17R     HAL2     0.900000E-01   1.00800           0
      7263 MEMB     53       DOPC     H17S     HAL2     0.900000E-01   1.00800           0
      7264 MEMB     53       DOPC     C218     CTL3    -0.270000       12.0110           0
      7265 MEMB     53       DOPC     H18R     HAL3     0.900000E-01   1.00800           0
      7266 MEMB     53       DOPC     H18S     HAL3     0.900000E-01   1.00800           0
      7267 MEMB     53       DOPC     H18T     HAL3     0.900000E-01   1.00800           0
      7268 MEMB     53       DOPC     C33      CTL2    -0.180000       12.0110           0
      7269 MEMB     53       DOPC     H3X      HAL2     0.900000E-01   1.00800           0
      7270 MEMB     53       DOPC     H3Y      HAL2     0.900000E-01   1.00800           0
      7271 MEMB     53       DOPC     C34      CTL2    -0.180000       12.0110           0
      7272 MEMB     53       DOPC     H4X      HAL2     0.900000E-01   1.00800           0
      7273 MEMB     53       DOPC     H4Y      HAL2     0.900000E-01   1.00800           0
      7274 MEMB     53       DOPC     C35      CTL2    -0.180000       12.0110           0
      7275 MEMB     53       DOPC     H5X      HAL2     0.900000E-01   1.00800           0
      7276 MEMB     53       DOPC     H5Y      HAL2     0.900000E-01   1.00800           0
      7277 MEMB     53       DOPC     C36      CTL2    -0.180000       12.0110           0
      7278 MEMB     53       DOPC     H6X      HAL2     0.900000E-01   1.00800           0
      7279 MEMB     53       DOPC     H6Y      HAL2     0.900000E-01   1.00800           0
      7280 MEMB     53       DOPC     C37      CTL2    -0.180000       12.0110           0
      7281 MEMB     53       DOPC     H7X      HAL2     0.900000E-01   1.00800           0
      7282 MEMB     53       DOPC     H7Y      HAL2     0.900000E-01   1.00800           0
      7283 MEMB     53       DOPC     C38      CTL2    -0.180000       12.0110           0
      7284 MEMB     53       DOPC     H8X      HAL2     0.900000E-01   1.00800           0
      7285 MEMB     53       DOPC     H8Y      HAL2     0.900000E-01   1.00800           0
      7286 MEMB     53       DOPC     C39      CEL1    -0.150000       12.0110           0
      7287 MEMB     53       DOPC     H9X      HEL1     0.150000       1.00800           0
      7288 MEMB     53       DOPC     C310     CEL1    -0.150000       12.0110           0
      7289 MEMB     53       DOPC     H10X     HEL1     0.150000       1.00800           0
      7290 MEMB     53       DOPC     C311     CTL2    -0.180000       12.0110           0
      7291 MEMB     53       DOPC     H11X     HAL2     0.900000E-01   1.00800           0
      7292 MEMB     53       DOPC     H11Y     HAL2     0.900000E-01   1.00800           0
      7293 MEMB     53       DOPC     C312     CTL2    -0.180000       12.0110           0
      7294 MEMB     53       DOPC     H12X     HAL2     0.900000E-01   1.00800           0
      7295 MEMB     53       DOPC     H12Y     HAL2     0.900000E-01   1.00800           0
      7296 MEMB     53       DOPC     C313     CTL2    -0.180000       12.0110           0
      7297 MEMB     53       DOPC     H13X     HAL2     0.900000E-01   1.00800           0
      7298 MEMB     53       DOPC     H13Y     HAL2     0.900000E-01   1.00800           0
      7299 MEMB     53       DOPC     C314     CTL2    -0.180000       12.0110           0
      7300 MEMB     53       DOPC     H14X     HAL2     0.900000E-01   1.00800           0
      7301 MEMB     53       DOPC     H14Y     HAL2     0.900000E-01   1.00800           0
      7302 MEMB     53       DOPC     C315     CTL2    -0.180000       12.0110           0
      7303 MEMB     53       DOPC     H15X     HAL2     0.900000E-01   1.00800           0
      7304 MEMB     53       DOPC     H15Y     HAL2     0.900000E-01   1.00800           0
      7305 MEMB     53       DOPC     C316     CTL2    -0.180000       12.0110           0
      7306 MEMB     53       DOPC     H16X     HAL2     0.900000E-01   1.00800           0
      7307 MEMB     53       DOPC     H16Y     HAL2     0.900000E-01   1.00800           0
      7308 MEMB     53       DOPC     C317     CTL2    -0.180000       12.0110           0
      7309 MEMB     53       DOPC     H17X     HAL2     0.900000E-01   1.00800           0
      7310 MEMB     53       DOPC     H17Y     HAL2     0.900000E-01   1.00800           0
      7311 MEMB     53       DOPC     C318     CTL3    -0.270000       12.0110           0
      7312 MEMB     53       DOPC     H18X     HAL3     0.900000E-01   1.00800           0
      7313 MEMB     53       DOPC     H18Y     HAL3     0.900000E-01   1.00800           0
      7314 MEMB     53       DOPC     H18Z     HAL3     0.900000E-01   1.00800           0
      7315 MEMB     54       DOPC     N        NTL     -0.600000       14.0070           0
      7316 MEMB     54       DOPC     C12      CTL2    -0.100000       12.0110           0
      7317 MEMB     54       DOPC     H12A     HL       0.250000       1.00800           0
      7318 MEMB     54       DOPC     H12B     HL       0.250000       1.00800           0
      7319 MEMB     54       DOPC     C13      CTL5    -0.350000       12.0110           0
      7320 MEMB     54       DOPC     H13A     HL       0.250000       1.00800           0
      7321 MEMB     54       DOPC     H13B     HL       0.250000       1.00800           0
      7322 MEMB     54       DOPC     H13C     HL       0.250000       1.00800           0
      7323 MEMB     54       DOPC     C14      CTL5    -0.350000       12.0110           0
      7324 MEMB     54       DOPC     H14A     HL       0.250000       1.00800           0
      7325 MEMB     54       DOPC     H14B     HL       0.250000       1.00800           0
      7326 MEMB     54       DOPC     H14C     HL       0.250000       1.00800           0
      7327 MEMB     54       DOPC     C15      CTL5    -0.350000       12.0110           0
      7328 MEMB     54       DOPC     H15A     HL       0.250000       1.00800           0
      7329 MEMB     54       DOPC     H15B     HL       0.250000       1.00800           0
      7330 MEMB     54       DOPC     H15C     HL       0.250000       1.00800           0
      7331 MEMB     54       DOPC     C11      CTL2    -0.800000E-01   12.0110           0
      7332 MEMB     54       DOPC     H11A     HAL2     0.900000E-01   1.00800           0
      7333 MEMB     54       DOPC     H11B     HAL2     0.900000E-01   1.00800           0
      7334 MEMB     54       DOPC     P        PL        1.50000       30.9740           0
      7335 MEMB     54       DOPC     O13      O2L     -0.780000       15.9994           0
      7336 MEMB     54       DOPC     O14      O2L     -0.780000       15.9994           0
      7337 MEMB     54       DOPC     O12      OSLP    -0.570000       15.9994           0
      7338 MEMB     54       DOPC     O11      OSLP    -0.570000       15.9994           0
      7339 MEMB     54       DOPC     C1       CTL2    -0.800000E-01   12.0110           0
      7340 MEMB     54       DOPC     HA       HAL2     0.900000E-01   1.00800           0
      7341 MEMB     54       DOPC     HB       HAL2     0.900000E-01   1.00800           0
      7342 MEMB     54       DOPC     C2       CTL1     0.170000       12.0110           0
      7343 MEMB     54       DOPC     HS       HAL1     0.900000E-01   1.00800           0
      7344 MEMB     54       DOPC     O21      OSL     -0.490000       15.9994           0
      7345 MEMB     54       DOPC     C21      CL       0.900000       12.0110           0
      7346 MEMB     54       DOPC     O22      OBL     -0.630000       15.9994           0
      7347 MEMB     54       DOPC     C22      CTL2    -0.220000       12.0110           0
      7348 MEMB     54       DOPC     H2R      HAL2     0.900000E-01   1.00800           0
      7349 MEMB     54       DOPC     H2S      HAL2     0.900000E-01   1.00800           0
      7350 MEMB     54       DOPC     C3       CTL2     0.800000E-01   12.0110           0
      7351 MEMB     54       DOPC     HX       HAL2     0.900000E-01   1.00800           0
      7352 MEMB     54       DOPC     HY       HAL2     0.900000E-01   1.00800           0
      7353 MEMB     54       DOPC     O31      OSL     -0.490000       15.9994           0
      7354 MEMB     54       DOPC     C31      CL       0.900000       12.0110           0
      7355 MEMB     54       DOPC     O32      OBL     -0.630000       15.9994           0
      7356 MEMB     54       DOPC     C32      CTL2    -0.220000       12.0110           0
      7357 MEMB     54       DOPC     H2X      HAL2     0.900000E-01   1.00800           0
      7358 MEMB     54       DOPC     H2Y      HAL2     0.900000E-01   1.00800           0
      7359 MEMB     54       DOPC     C23      CTL2    -0.180000       12.0110           0
      7360 MEMB     54       DOPC     H3R      HAL2     0.900000E-01   1.00800           0
      7361 MEMB     54       DOPC     H3S      HAL2     0.900000E-01   1.00800           0
      7362 MEMB     54       DOPC     C24      CTL2    -0.180000       12.0110           0
      7363 MEMB     54       DOPC     H4R      HAL2     0.900000E-01   1.00800           0
      7364 MEMB     54       DOPC     H4S      HAL2     0.900000E-01   1.00800           0
      7365 MEMB     54       DOPC     C25      CTL2    -0.180000       12.0110           0
      7366 MEMB     54       DOPC     H5R      HAL2     0.900000E-01   1.00800           0
      7367 MEMB     54       DOPC     H5S      HAL2     0.900000E-01   1.00800           0
      7368 MEMB     54       DOPC     C26      CTL2    -0.180000       12.0110           0
      7369 MEMB     54       DOPC     H6R      HAL2     0.900000E-01   1.00800           0
      7370 MEMB     54       DOPC     H6S      HAL2     0.900000E-01   1.00800           0
      7371 MEMB     54       DOPC     C27      CTL2    -0.180000       12.0110           0
      7372 MEMB     54       DOPC     H7R      HAL2     0.900000E-01   1.00800           0
      7373 MEMB     54       DOPC     H7S      HAL2     0.900000E-01   1.00800           0
      7374 MEMB     54       DOPC     C28      CTL2    -0.180000       12.0110           0
      7375 MEMB     54       DOPC     H8R      HAL2     0.900000E-01   1.00800           0
      7376 MEMB     54       DOPC     H8S      HAL2     0.900000E-01   1.00800           0
      7377 MEMB     54       DOPC     C29      CEL1    -0.150000       12.0110           0
      7378 MEMB     54       DOPC     H9R      HEL1     0.150000       1.00800           0
      7379 MEMB     54       DOPC     C210     CEL1    -0.150000       12.0110           0
      7380 MEMB     54       DOPC     H10R     HEL1     0.150000       1.00800           0
      7381 MEMB     54       DOPC     C211     CTL2    -0.180000       12.0110           0
      7382 MEMB     54       DOPC     H11R     HAL2     0.900000E-01   1.00800           0
      7383 MEMB     54       DOPC     H11S     HAL2     0.900000E-01   1.00800           0
      7384 MEMB     54       DOPC     C212     CTL2    -0.180000       12.0110           0
      7385 MEMB     54       DOPC     H12R     HAL2     0.900000E-01   1.00800           0
      7386 MEMB     54       DOPC     H12S     HAL2     0.900000E-01   1.00800           0
      7387 MEMB     54       DOPC     C213     CTL2    -0.180000       12.0110           0
      7388 MEMB     54       DOPC     H13R     HAL2     0.900000E-01   1.00800           0
      7389 MEMB     54       DOPC     H13S     HAL2     0.900000E-01   1.00800           0
      7390 MEMB     54       DOPC     C214     CTL2    -0.180000       12.0110           0
      7391 MEMB     54       DOPC     H14R     HAL2     0.900000E-01   1.00800           0
      7392 MEMB     54       DOPC     H14S     HAL2     0.900000E-01   1.00800           0
      7393 MEMB     54       DOPC     C215     CTL2    -0.180000       12.0110           0
      7394 MEMB     54       DOPC     H15R     HAL2     0.900000E-01   1.00800           0
      7395 MEMB     54       DOPC     H15S     HAL2     0.900000E-01   1.00800           0
      7396 MEMB     54       DOPC     C216     CTL2    -0.180000       12.0110           0
      7397 MEMB     54       DOPC     H16R     HAL2     0.900000E-01   1.00800           0
      7398 MEMB     54       DOPC     H16S     HAL2     0.900000E-01   1.00800           0
      7399 MEMB     54       DOPC     C217     CTL2    -0.180000       12.0110           0
      7400 MEMB     54       DOPC     H17R     HAL2     0.900000E-01   1.00800           0
      7401 MEMB     54       DOPC     H17S     HAL2     0.900000E-01   1.00800           0
      7402 MEMB     54       DOPC     C218     CTL3    -0.270000       12.0110           0
      7403 MEMB     54       DOPC     H18R     HAL3     0.900000E-01   1.00800           0
      7404 MEMB     54       DOPC     H18S     HAL3     0.900000E-01   1.00800           0
      7405 MEMB     54       DOPC     H18T     HAL3     0.900000E-01   1.00800           0
      7406 MEMB     54       DOPC     C33      CTL2    -0.180000       12.0110           0
      7407 MEMB     54       DOPC     H3X      HAL2     0.900000E-01   1.00800           0
      7408 MEMB     54       DOPC     H3Y      HAL2     0.900000E-01   1.00800           0
      7409 MEMB     54       DOPC     C34      CTL2    -0.180000       12.0110           0
      7410 MEMB     54       DOPC     H4X      HAL2     0.900000E-01   1.00800           0
      7411 MEMB     54       DOPC     H4Y      HAL2     0.900000E-01   1.00800           0
      7412 MEMB     54       DOPC     C35      CTL2    -0.180000       12.0110           0
      7413 MEMB     54       DOPC     H5X      HAL2     0.900000E-01   1.00800           0
      7414 MEMB     54       DOPC     H5Y      HAL2     0.900000E-01   1.00800           0
      7415 MEMB     54       DOPC     C36      CTL2    -0.180000       12.0110           0
      7416 MEMB     54       DOPC     H6X      HAL2     0.900000E-01   1.00800           0
      7417 MEMB     54       DOPC     H6Y      HAL2     0.900000E-01   1.00800           0
      7418 MEMB     54       DOPC     C37      CTL2    -0.180000       12.0110           0
      7419 MEMB     54       DOPC     H7X      HAL2     0.900000E-01   1.00800           0
      7420 MEMB     54       DOPC     H7Y      HAL2     0.900000E-01   1.00800           0
      7421 MEMB     54       DOPC     C38      CTL2    -0.180000       12.0110           0
      7422 MEMB     54       DOPC     H8X      HAL2     0.900000E-01   1.00800           0
      7423 MEMB     54       DOPC     H8Y      HAL2     0.900000E-01   1.00800           0
      7424 MEMB     54       DOPC     C39      CEL1    -0.150000       12.0110           0
      7425 MEMB     54       DOPC     H9X      HEL1     0.150000       1.00800           0
      7426 MEMB     54       DOPC     C310     CEL1    -0.150000       12.0110           0
      7427 MEMB     54       DOPC     H10X     HEL1     0.150000       1.00800           0
      7428 MEMB     54       DOPC     C311     CTL2    -0.180000       12.0110           0
      7429 MEMB     54       DOPC     H11X     HAL2     0.900000E-01   1.00800           0
      7430 MEMB     54       DOPC     H11Y     HAL2     0.900000E-01   1.00800           0
      7431 MEMB     54       DOPC     C312     CTL2    -0.180000       12.0110           0
      7432 MEMB     54       DOPC     H12X     HAL2     0.900000E-01   1.00800           0
      7433 MEMB     54       DOPC     H12Y     HAL2     0.900000E-01   1.00800           0
      7434 MEMB     54       DOPC     C313     CTL2    -0.180000       12.0110           0
      7435 MEMB     54       DOPC     H13X     HAL2     0.900000E-01   1.00800           0
      7436 MEMB     54       DOPC     H13Y     HAL2     0.900000E-01   1.00800           0
      7437 MEMB     54       DOPC     C314     CTL2    -0.180000       12.0110           0
      7438 MEMB     54       DOPC     H14X     HAL2     0.900000E-01   1.00800           0
      7439 MEMB     54       DOPC     H14Y     HAL2     0.900000E-01   1.00800           0
      7440 MEMB     54       DOPC     C315     CTL2    -0.180000       12.0110           0
      7441 MEMB     54       DOPC     H15X     HAL2     0.900000E-01   1.00800           0
      7442 MEMB     54       DOPC     H15Y     HAL2     0.900000E-01   1.00800           0
      7443 MEMB     54       DOPC     C316     CTL2    -0.180000       12.0110           0
      7444 MEMB     54       DOPC     H16X     HAL2     0.900000E-01   1.00800           0
      7445 MEMB     54       DOPC     H16Y     HAL2     0.900000E-01   1.00800           0
      7446 MEMB     54       DOPC     C317     CTL2    -0.180000       12.0110           0
      7447 MEMB     54       DOPC     H17X     HAL2     0.900000E-01   1.00800           0
      7448 MEMB     54       DOPC     H17Y     HAL2     0.900000E-01   1.00800           0
      7449 MEMB     54       DOPC     C318     CTL3    -0.270000       12.0110           0
      7450 MEMB     54       DOPC     H18X     HAL3     0.900000E-01   1.00800           0
      7451 MEMB     54       DOPC     H18Y     HAL3     0.900000E-01   1.00800           0
      7452 MEMB     54       DOPC     H18Z     HAL3     0.900000E-01   1.00800           0
      7453 MEMB     55       DOPC     N        NTL     -0.600000       14.0070           0
      7454 MEMB     55       DOPC     C12      CTL2    -0.100000       12.0110           0
      7455 MEMB     55       DOPC     H12A     HL       0.250000       1.00800           0
      7456 MEMB     55       DOPC     H12B     HL       0.250000       1.00800           0
      7457 MEMB     55       DOPC     C13      CTL5    -0.350000       12.0110           0
      7458 MEMB     55       DOPC     H13A     HL       0.250000       1.00800           0
      7459 MEMB     55       DOPC     H13B     HL       0.250000       1.00800           0
      7460 MEMB     55       DOPC     H13C     HL       0.250000       1.00800           0
      7461 MEMB     55       DOPC     C14      CTL5    -0.350000       12.0110           0
      7462 MEMB     55       DOPC     H14A     HL       0.250000       1.00800           0
      7463 MEMB     55       DOPC     H14B     HL       0.250000       1.00800           0
      7464 MEMB     55       DOPC     H14C     HL       0.250000       1.00800           0
      7465 MEMB     55       DOPC     C15      CTL5    -0.350000       12.0110           0
      7466 MEMB     55       DOPC     H15A     HL       0.250000       1.00800           0
      7467 MEMB     55       DOPC     H15B     HL       0.250000       1.00800           0
      7468 MEMB     55       DOPC     H15C     HL       0.250000       1.00800           0
      7469 MEMB     55       DOPC     C11      CTL2    -0.800000E-01   12.0110           0
      7470 MEMB     55       DOPC     H11A     HAL2     0.900000E-01   1.00800           0
      7471 MEMB     55       DOPC     H11B     HAL2     0.900000E-01   1.00800           0
      7472 MEMB     55       DOPC     P        PL        1.50000       30.9740           0
      7473 MEMB     55       DOPC     O13      O2L     -0.780000       15.9994           0
      7474 MEMB     55       DOPC     O14      O2L     -0.780000       15.9994           0
      7475 MEMB     55       DOPC     O12      OSLP    -0.570000       15.9994           0
      7476 MEMB     55       DOPC     O11      OSLP    -0.570000       15.9994           0
      7477 MEMB     55       DOPC     C1       CTL2    -0.800000E-01   12.0110           0
      7478 MEMB     55       DOPC     HA       HAL2     0.900000E-01   1.00800           0
      7479 MEMB     55       DOPC     HB       HAL2     0.900000E-01   1.00800           0
      7480 MEMB     55       DOPC     C2       CTL1     0.170000       12.0110           0
      7481 MEMB     55       DOPC     HS       HAL1     0.900000E-01   1.00800           0
      7482 MEMB     55       DOPC     O21      OSL     -0.490000       15.9994           0
      7483 MEMB     55       DOPC     C21      CL       0.900000       12.0110           0
      7484 MEMB     55       DOPC     O22      OBL     -0.630000       15.9994           0
      7485 MEMB     55       DOPC     C22      CTL2    -0.220000       12.0110           0
      7486 MEMB     55       DOPC     H2R      HAL2     0.900000E-01   1.00800           0
      7487 MEMB     55       DOPC     H2S      HAL2     0.900000E-01   1.00800           0
      7488 MEMB     55       DOPC     C3       CTL2     0.800000E-01   12.0110           0
      7489 MEMB     55       DOPC     HX       HAL2     0.900000E-01   1.00800           0
      7490 MEMB     55       DOPC     HY       HAL2     0.900000E-01   1.00800           0
      7491 MEMB     55       DOPC     O31      OSL     -0.490000       15.9994           0
      7492 MEMB     55       DOPC     C31      CL       0.900000       12.0110           0
      7493 MEMB     55       DOPC     O32      OBL     -0.630000       15.9994           0
      7494 MEMB     55       DOPC     C32      CTL2    -0.220000       12.0110           0
      7495 MEMB     55       DOPC     H2X      HAL2     0.900000E-01   1.00800           0
      7496 MEMB     55       DOPC     H2Y      HAL2     0.900000E-01   1.00800           0
      7497 MEMB     55       DOPC     C23      CTL2    -0.180000       12.0110           0
      7498 MEMB     55       DOPC     H3R      HAL2     0.900000E-01   1.00800           0
      7499 MEMB     55       DOPC     H3S      HAL2     0.900000E-01   1.00800           0
      7500 MEMB     55       DOPC     C24      CTL2    -0.180000       12.0110           0
      7501 MEMB     55       DOPC     H4R      HAL2     0.900000E-01   1.00800           0
      7502 MEMB     55       DOPC     H4S      HAL2     0.900000E-01   1.00800           0
      7503 MEMB     55       DOPC     C25      CTL2    -0.180000       12.0110           0
      7504 MEMB     55       DOPC     H5R      HAL2     0.900000E-01   1.00800           0
      7505 MEMB     55       DOPC     H5S      HAL2     0.900000E-01   1.00800           0
      7506 MEMB     55       DOPC     C26      CTL2    -0.180000       12.0110           0
      7507 MEMB     55       DOPC     H6R      HAL2     0.900000E-01   1.00800           0
      7508 MEMB     55       DOPC     H6S      HAL2     0.900000E-01   1.00800           0
      7509 MEMB     55       DOPC     C27      CTL2    -0.180000       12.0110           0
      7510 MEMB     55       DOPC     H7R      HAL2     0.900000E-01   1.00800           0
      7511 MEMB     55       DOPC     H7S      HAL2     0.900000E-01   1.00800           0
      7512 MEMB     55       DOPC     C28      CTL2    -0.180000       12.0110           0
      7513 MEMB     55       DOPC     H8R      HAL2     0.900000E-01   1.00800           0
      7514 MEMB     55       DOPC     H8S      HAL2     0.900000E-01   1.00800           0
      7515 MEMB     55       DOPC     C29      CEL1    -0.150000       12.0110           0
      7516 MEMB     55       DOPC     H9R      HEL1     0.150000       1.00800           0
      7517 MEMB     55       DOPC     C210     CEL1    -0.150000       12.0110           0
      7518 MEMB     55       DOPC     H10R     HEL1     0.150000       1.00800           0
      7519 MEMB     55       DOPC     C211     CTL2    -0.180000       12.0110           0
      7520 MEMB     55       DOPC     H11R     HAL2     0.900000E-01   1.00800           0
      7521 MEMB     55       DOPC     H11S     HAL2     0.900000E-01   1.00800           0
      7522 MEMB     55       DOPC     C212     CTL2    -0.180000       12.0110           0
      7523 MEMB     55       DOPC     H12R     HAL2     0.900000E-01   1.00800           0
      7524 MEMB     55       DOPC     H12S     HAL2     0.900000E-01   1.00800           0
      7525 MEMB     55       DOPC     C213     CTL2    -0.180000       12.0110           0
      7526 MEMB     55       DOPC     H13R     HAL2     0.900000E-01   1.00800           0
      7527 MEMB     55       DOPC     H13S     HAL2     0.900000E-01   1.00800           0
      7528 MEMB     55       DOPC     C214     CTL2    -0.180000       12.0110           0
      7529 MEMB     55       DOPC     H14R     HAL2     0.900000E-01   1.00800           0
      7530 MEMB     55       DOPC     H14S     HAL2     0.900000E-01   1.00800           0
      7531 MEMB     55       DOPC     C215     CTL2    -0.180000       12.0110           0
      7532 MEMB     55       DOPC     H15R     HAL2     0.900000E-01   1.00800           0
      7533 MEMB     55       DOPC     H15S     HAL2     0.900000E-01   1.00800           0
      7534 MEMB     55       DOPC     C216     CTL2    -0.180000       12.0110           0
      7535 MEMB     55       DOPC     H16R     HAL2     0.900000E-01   1.00800           0
      7536 MEMB     55       DOPC     H16S     HAL2     0.900000E-01   1.00800           0
      7537 MEMB     55       DOPC     C217     CTL2    -0.180000       12.0110           0
      7538 MEMB     55       DOPC     H17R     HAL2     0.900000E-01   1.00800           0
      7539 MEMB     55       DOPC     H17S     HAL2     0.900000E-01   1.00800           0
      7540 MEMB     55       DOPC     C218     CTL3    -0.270000       12.0110           0
      7541 MEMB     55       DOPC     H18R     HAL3     0.900000E-01   1.00800           0
      7542 MEMB     55       DOPC     H18S     HAL3     0.900000E-01   1.00800           0
      7543 MEMB     55       DOPC     H18T     HAL3     0.900000E-01   1.00800           0
      7544 MEMB     55       DOPC     C33      CTL2    -0.180000       12.0110           0
      7545 MEMB     55       DOPC     H3X      HAL2     0.900000E-01   1.00800           0
      7546 MEMB     55       DOPC     H3Y      HAL2     0.900000E-01   1.00800           0
      7547 MEMB     55       DOPC     C34      CTL2    -0.180000       12.0110           0
      7548 MEMB     55       DOPC     H4X      HAL2     0.900000E-01   1.00800           0
      7549 MEMB     55       DOPC     H4Y      HAL2     0.900000E-01   1.00800           0
      7550 MEMB     55       DOPC     C35      CTL2    -0.180000       12.0110           0
      7551 MEMB     55       DOPC     H5X      HAL2     0.900000E-01   1.00800           0
      7552 MEMB     55       DOPC     H5Y      HAL2     0.900000E-01   1.00800           0
      7553 MEMB     55       DOPC     C36      CTL2    -0.180000       12.0110           0
      7554 MEMB     55       DOPC     H6X      HAL2     0.900000E-01   1.00800           0
      7555 MEMB     55       DOPC     H6Y      HAL2     0.900000E-01   1.00800           0
      7556 MEMB     55       DOPC     C37      CTL2    -0.180000       12.0110           0
      7557 MEMB     55       DOPC     H7X      HAL2     0.900000E-01   1.00800           0
      7558 MEMB     55       DOPC     H7Y      HAL2     0.900000E-01   1.00800           0
      7559 MEMB     55       DOPC     C38      CTL2    -0.180000       12.0110           0
      7560 MEMB     55       DOPC     H8X      HAL2     0.900000E-01   1.00800           0
      7561 MEMB     55       DOPC     H8Y      HAL2     0.900000E-01   1.00800           0
      7562 MEMB     55       DOPC     C39      CEL1    -0.150000       12.0110           0
      7563 MEMB     55       DOPC     H9X      HEL1     0.150000       1.00800           0
      7564 MEMB     55       DOPC     C310     CEL1    -0.150000       12.0110           0
      7565 MEMB     55       DOPC     H10X     HEL1     0.150000       1.00800           0
      7566 MEMB     55       DOPC     C311     CTL2    -0.180000       12.0110           0
      7567 MEMB     55       DOPC     H11X     HAL2     0.900000E-01   1.00800           0
      7568 MEMB     55       DOPC     H11Y     HAL2     0.900000E-01   1.00800           0
      7569 MEMB     55       DOPC     C312     CTL2    -0.180000       12.0110           0
      7570 MEMB     55       DOPC     H12X     HAL2     0.900000E-01   1.00800           0
      7571 MEMB     55       DOPC     H12Y     HAL2     0.900000E-01   1.00800           0
      7572 MEMB     55       DOPC     C313     CTL2    -0.180000       12.0110           0
      7573 MEMB     55       DOPC     H13X     HAL2     0.900000E-01   1.00800           0
      7574 MEMB     55       DOPC     H13Y     HAL2     0.900000E-01   1.00800           0
      7575 MEMB     55       DOPC     C314     CTL2    -0.180000       12.0110           0
      7576 MEMB     55       DOPC     H14X     HAL2     0.900000E-01   1.00800           0
      7577 MEMB     55       DOPC     H14Y     HAL2     0.900000E-01   1.00800           0
      7578 MEMB     55       DOPC     C315     CTL2    -0.180000       12.0110           0
      7579 MEMB     55       DOPC     H15X     HAL2     0.900000E-01   1.00800           0
      7580 MEMB     55       DOPC     H15Y     HAL2     0.900000E-01   1.00800           0
      7581 MEMB     55       DOPC     C316     CTL2    -0.180000       12.0110           0
      7582 MEMB     55       DOPC     H16X     HAL2     0.900000E-01   1.00800           0
      7583 MEMB     55       DOPC     H16Y     HAL2     0.900000E-01   1.00800           0
      7584 MEMB     55       DOPC     C317     CTL2    -0.180000       12.0110           0
      7585 MEMB     55       DOPC     H17X     HAL2     0.900000E-01   1.00800           0
      7586 MEMB     55       DOPC     H17Y     HAL2     0.900000E-01   1.00800           0
      7587 MEMB     55       DOPC     C318     CTL3    -0.270000       12.0110           0
      7588 MEMB     55       DOPC     H18X     HAL3     0.900000E-01   1.00800           0
      7589 MEMB     55       DOPC     H18Y     HAL3     0.900000E-01   1.00800           0
      7590 MEMB     55       DOPC     H18Z     HAL3     0.900000E-01   1.00800           0
      7591 MEMB     56       DOPC     N        NTL     -0.600000       14.0070           0
      7592 MEMB     56       DOPC     C12      CTL2    -0.100000       12.0110           0
      7593 MEMB     56       DOPC     H12A     HL       0.250000       1.00800           0
      7594 MEMB     56       DOPC     H12B     HL       0.250000       1.00800           0
      7595 MEMB     56       DOPC     C13      CTL5    -0.350000       12.0110           0
      7596 MEMB     56       DOPC     H13A     HL       0.250000       1.00800           0
      7597 MEMB     56       DOPC     H13B     HL       0.250000       1.00800           0
      7598 MEMB     56       DOPC     H13C     HL       0.250000       1.00800           0
      7599 MEMB     56       DOPC     C14      CTL5    -0.350000       12.0110           0
      7600 MEMB     56       DOPC     H14A     HL       0.250000       1.00800           0
      7601 MEMB     56       DOPC     H14B     HL       0.250000       1.00800           0
      7602 MEMB     56       DOPC     H14C     HL       0.250000       1.00800           0
      7603 MEMB     56       DOPC     C15      CTL5    -0.350000       12.0110           0
      7604 MEMB     56       DOPC     H15A     HL       0.250000       1.00800           0
      7605 MEMB     56       DOPC     H15B     HL       0.250000       1.00800           0
      7606 MEMB     56       DOPC     H15C     HL       0.250000       1.00800           0
      7607 MEMB     56       DOPC     C11      CTL2    -0.800000E-01   12.0110           0
      7608 MEMB     56       DOPC     H11A     HAL2     0.900000E-01   1.00800           0
      7609 MEMB     56       DOPC     H11B     HAL2     0.900000E-01   1.00800           0
      7610 MEMB     56       DOPC     P        PL        1.50000       30.9740           0
      7611 MEMB     56       DOPC     O13      O2L     -0.780000       15.9994           0
      7612 MEMB     56       DOPC     O14      O2L     -0.780000       15.9994           0
      7613 MEMB     56       DOPC     O12      OSLP    -0.570000       15.9994           0
      7614 MEMB     56       DOPC     O11      OSLP    -0.570000       15.9994           0
      7615 MEMB     56       DOPC     C1       CTL2    -0.800000E-01   12.0110           0
      7616 MEMB     56       DOPC     HA       HAL2     0.900000E-01   1.00800           0
      7617 MEMB     56       DOPC     HB       HAL2     0.900000E-01   1.00800           0
      7618 MEMB     56       DOPC     C2       CTL1     0.170000       12.0110           0
      7619 MEMB     56       DOPC     HS       HAL1     0.900000E-01   1.00800           0
      7620 MEMB     56       DOPC     O21      OSL     -0.490000       15.9994           0
      7621 MEMB     56       DOPC     C21      CL       0.900000       12.0110           0
      7622 MEMB     56       DOPC     O22      OBL     -0.630000       15.9994           0
      7623 MEMB     56       DOPC     C22      CTL2    -0.220000       12.0110           0
      7624 MEMB     56       DOPC     H2R      HAL2     0.900000E-01   1.00800           0
      7625 MEMB     56       DOPC     H2S      HAL2     0.900000E-01   1.00800           0
      7626 MEMB     56       DOPC     C3       CTL2     0.800000E-01   12.0110           0
      7627 MEMB     56       DOPC     HX       HAL2     0.900000E-01   1.00800           0
      7628 MEMB     56       DOPC     HY       HAL2     0.900000E-01   1.00800           0
      7629 MEMB     56       DOPC     O31      OSL     -0.490000       15.9994           0
      7630 MEMB     56       DOPC     C31      CL       0.900000       12.0110           0
      7631 MEMB     56       DOPC     O32      OBL     -0.630000       15.9994           0
      7632 MEMB     56       DOPC     C32      CTL2    -0.220000       12.0110           0
      7633 MEMB     56       DOPC     H2X      HAL2     0.900000E-01   1.00800           0
      7634 MEMB     56       DOPC     H2Y      HAL2     0.900000E-01   1.00800           0
      7635 MEMB     56       DOPC     C23      CTL2    -0.180000       12.0110           0
      7636 MEMB     56       DOPC     H3R      HAL2     0.900000E-01   1.00800           0
      7637 MEMB     56       DOPC     H3S      HAL2     0.900000E-01   1.00800           0
      7638 MEMB     56       DOPC     C24      CTL2    -0.180000       12.0110           0
      7639 MEMB     56       DOPC     H4R      HAL2     0.900000E-01   1.00800           0
      7640 MEMB     56       DOPC     H4S      HAL2     0.900000E-01   1.00800           0
      7641 MEMB     56       DOPC     C25      CTL2    -0.180000       12.0110           0
      7642 MEMB     56       DOPC     H5R      HAL2     0.900000E-01   1.00800           0
      7643 MEMB     56       DOPC     H5S      HAL2     0.900000E-01   1.00800           0
      7644 MEMB     56       DOPC     C26      CTL2    -0.180000       12.0110           0
      7645 MEMB     56       DOPC     H6R      HAL2     0.900000E-01   1.00800           0
      7646 MEMB     56       DOPC     H6S      HAL2     0.900000E-01   1.00800           0
      7647 MEMB     56       DOPC     C27      CTL2    -0.180000       12.0110           0
      7648 MEMB     56       DOPC     H7R      HAL2     0.900000E-01   1.00800           0
      7649 MEMB     56       DOPC     H7S      HAL2     0.900000E-01   1.00800           0
      7650 MEMB     56       DOPC     C28      CTL2    -0.180000       12.0110           0
      7651 MEMB     56       DOPC     H8R      HAL2     0.900000E-01   1.00800           0
      7652 MEMB     56       DOPC     H8S      HAL2     0.900000E-01   1.00800           0
      7653 MEMB     56       DOPC     C29      CEL1    -0.150000       12.0110           0
      7654 MEMB     56       DOPC     H9R      HEL1     0.150000       1.00800           0
      7655 MEMB     56       DOPC     C210     CEL1    -0.150000       12.0110           0
      7656 MEMB     56       DOPC     H10R     HEL1     0.150000       1.00800           0
      7657 MEMB     56       DOPC     C211     CTL2    -0.180000       12.0110           0
      7658 MEMB     56       DOPC     H11R     HAL2     0.900000E-01   1.00800           0
      7659 MEMB     56       DOPC     H11S     HAL2     0.900000E-01   1.00800           0
      7660 MEMB     56       DOPC     C212     CTL2    -0.180000       12.0110           0
      7661 MEMB     56       DOPC     H12R     HAL2     0.900000E-01   1.00800           0
      7662 MEMB     56       DOPC     H12S     HAL2     0.900000E-01   1.00800           0
      7663 MEMB     56       DOPC     C213     CTL2    -0.180000       12.0110           0
      7664 MEMB     56       DOPC     H13R     HAL2     0.900000E-01   1.00800           0
      7665 MEMB     56       DOPC     H13S     HAL2     0.900000E-01   1.00800           0
      7666 MEMB     56       DOPC     C214     CTL2    -0.180000       12.0110           0
      7667 MEMB     56       DOPC     H14R     HAL2     0.900000E-01   1.00800           0
      7668 MEMB     56       DOPC     H14S     HAL2     0.900000E-01   1.00800           0
      7669 MEMB     56       DOPC     C215     CTL2    -0.180000       12.0110           0
      7670 MEMB     56       DOPC     H15R     HAL2     0.900000E-01   1.00800           0
      7671 MEMB     56       DOPC     H15S     HAL2     0.900000E-01   1.00800           0
      7672 MEMB     56       DOPC     C216     CTL2    -0.180000       12.0110           0
      7673 MEMB     56       DOPC     H16R     HAL2     0.900000E-01   1.00800           0
      7674 MEMB     56       DOPC     H16S     HAL2     0.900000E-01   1.00800           0
      7675 MEMB     56       DOPC     C217     CTL2    -0.180000       12.0110           0
      7676 MEMB     56       DOPC     H17R     HAL2     0.900000E-01   1.00800           0
      7677 MEMB     56       DOPC     H17S     HAL2     0.900000E-01   1.00800           0
      7678 MEMB     56       DOPC     C218     CTL3    -0.270000       12.0110           0
      7679 MEMB     56       DOPC     H18R     HAL3     0.900000E-01   1.00800           0
      7680 MEMB     56       DOPC     H18S     HAL3     0.900000E-01   1.00800           0
      7681 MEMB     56       DOPC     H18T     HAL3     0.900000E-01   1.00800           0
      7682 MEMB     56       DOPC     C33      CTL2    -0.180000       12.0110           0
      7683 MEMB     56       DOPC     H3X      HAL2     0.900000E-01   1.00800           0
      7684 MEMB     56       DOPC     H3Y      HAL2     0.900000E-01   1.00800           0
      7685 MEMB     56       DOPC     C34      CTL2    -0.180000       12.0110           0
      7686 MEMB     56       DOPC     H4X      HAL2     0.900000E-01   1.00800           0
      7687 MEMB     56       DOPC     H4Y      HAL2     0.900000E-01   1.00800           0
      7688 MEMB     56       DOPC     C35      CTL2    -0.180000       12.0110           0
      7689 MEMB     56       DOPC     H5X      HAL2     0.900000E-01   1.00800           0
      7690 MEMB     56       DOPC     H5Y      HAL2     0.900000E-01   1.00800           0
      7691 MEMB     56       DOPC     C36      CTL2    -0.180000       12.0110           0
      7692 MEMB     56       DOPC     H6X      HAL2     0.900000E-01   1.00800           0
      7693 MEMB     56       DOPC     H6Y      HAL2     0.900000E-01   1.00800           0
      7694 MEMB     56       DOPC     C37      CTL2    -0.180000       12.0110           0
      7695 MEMB     56       DOPC     H7X      HAL2     0.900000E-01   1.00800           0
      7696 MEMB     56       DOPC     H7Y      HAL2     0.900000E-01   1.00800           0
      7697 MEMB     56       DOPC     C38      CTL2    -0.180000       12.0110           0
      7698 MEMB     56       DOPC     H8X      HAL2     0.900000E-01   1.00800           0
      7699 MEMB     56       DOPC     H8Y      HAL2     0.900000E-01   1.00800           0
      7700 MEMB     56       DOPC     C39      CEL1    -0.150000       12.0110           0
      7701 MEMB     56       DOPC     H9X      HEL1     0.150000       1.00800           0
      7702 MEMB     56       DOPC     C310     CEL1    -0.150000       12.0110           0
      7703 MEMB     56       DOPC     H10X     HEL1     0.150000       1.00800           0
      7704 MEMB     56       DOPC     C311     CTL2    -0.180000       12.0110           0
      7705 MEMB     56       DOPC     H11X     HAL2     0.900000E-01   1.00800           0
      7706 MEMB     56       DOPC     H11Y     HAL2     0.900000E-01   1.00800           0
      7707 MEMB     56       DOPC     C312     CTL2    -0.180000       12.0110           0
      7708 MEMB     56       DOPC     H12X     HAL2     0.900000E-01   1.00800           0
      7709 MEMB     56       DOPC     H12Y     HAL2     0.900000E-01   1.00800           0
      7710 MEMB     56       DOPC     C313     CTL2    -0.180000       12.0110           0
      7711 MEMB     56       DOPC     H13X     HAL2     0.900000E-01   1.00800           0
      7712 MEMB     56       DOPC     H13Y     HAL2     0.900000E-01   1.00800           0
      7713 MEMB     56       DOPC     C314     CTL2    -0.180000       12.0110           0
      7714 MEMB     56       DOPC     H14X     HAL2     0.900000E-01   1.00800           0
      7715 MEMB     56       DOPC     H14Y     HAL2     0.900000E-01   1.00800           0
      7716 MEMB     56       DOPC     C315     CTL2    -0.180000       12.0110           0
      7717 MEMB     56       DOPC     H15X     HAL2     0.900000E-01   1.00800           0
      7718 MEMB     56       DOPC     H15Y     HAL2     0.900000E-01   1.00800           0
      7719 MEMB     56       DOPC     C316     CTL2    -0.180000       12.0110           0
      7720 MEMB     56       DOPC     H16X     HAL2     0.900000E-01   1.00800           0
      7721 MEMB     56       DOPC     H16Y     HAL2     0.900000E-01   1.00800           0
      7722 MEMB     56       DOPC     C317     CTL2    -0.180000       12.0110           0
      7723 MEMB     56       DOPC     H17X     HAL2     0.900000E-01   1.00800           0
      7724 MEMB     56       DOPC     H17Y     HAL2     0.900000E-01   1.00800           0
      7725 MEMB     56       DOPC     C318     CTL3    -0.270000       12.0110           0
      7726 MEMB     56       DOPC     H18X     HAL3     0.900000E-01   1.00800           0
      7727 MEMB     56       DOPC     H18Y     HAL3     0.900000E-01   1.00800           0
      7728 MEMB     56       DOPC     H18Z     HAL3     0.900000E-01   1.00800           0
      7729 MEMB     57       DOPC     N        NTL     -0.600000       14.0070           0
      7730 MEMB     57       DOPC     C12      CTL2    -0.100000       12.0110           0
      7731 MEMB     57       DOPC     H12A     HL       0.250000       1.00800           0
      7732 MEMB     57       DOPC     H12B     HL       0.250000       1.00800           0
      7733 MEMB     57       DOPC     C13      CTL5    -0.350000       12.0110           0
      7734 MEMB     57       DOPC     H13A     HL       0.250000       1.00800           0
      7735 MEMB     57       DOPC     H13B     HL       0.250000       1.00800           0
      7736 MEMB     57       DOPC     H13C     HL       0.250000       1.00800           0
      7737 MEMB     57       DOPC     C14      CTL5    -0.350000       12.0110           0
      7738 MEMB     57       DOPC     H14A     HL       0.250000       1.00800           0
      7739 MEMB     57       DOPC     H14B     HL       0.250000       1.00800           0
      7740 MEMB     57       DOPC     H14C     HL       0.250000       1.00800           0
      7741 MEMB     57       DOPC     C15      CTL5    -0.350000       12.0110           0
      7742 MEMB     57       DOPC     H15A     HL       0.250000       1.00800           0
      7743 MEMB     57       DOPC     H15B     HL       0.250000       1.00800           0
      7744 MEMB     57       DOPC     H15C     HL       0.250000       1.00800           0
      7745 MEMB     57       DOPC     C11      CTL2    -0.800000E-01   12.0110           0
      7746 MEMB     57       DOPC     H11A     HAL2     0.900000E-01   1.00800           0
      7747 MEMB     57       DOPC     H11B     HAL2     0.900000E-01   1.00800           0
      7748 MEMB     57       DOPC     P        PL        1.50000       30.9740           0
      7749 MEMB     57       DOPC     O13      O2L     -0.780000       15.9994           0
      7750 MEMB     57       DOPC     O14      O2L     -0.780000       15.9994           0
      7751 MEMB     57       DOPC     O12      OSLP    -0.570000       15.9994           0
      7752 MEMB     57       DOPC     O11      OSLP    -0.570000       15.9994           0
      7753 MEMB     57       DOPC     C1       CTL2    -0.800000E-01   12.0110           0
      7754 MEMB     57       DOPC     HA       HAL2     0.900000E-01   1.00800           0
      7755 MEMB     57       DOPC     HB       HAL2     0.900000E-01   1.00800           0
      7756 MEMB     57       DOPC     C2       CTL1     0.170000       12.0110           0
      7757 MEMB     57       DOPC     HS       HAL1     0.900000E-01   1.00800           0
      7758 MEMB     57       DOPC     O21      OSL     -0.490000       15.9994           0
      7759 MEMB     57       DOPC     C21      CL       0.900000       12.0110           0
      7760 MEMB     57       DOPC     O22      OBL     -0.630000       15.9994           0
      7761 MEMB     57       DOPC     C22      CTL2    -0.220000       12.0110           0
      7762 MEMB     57       DOPC     H2R      HAL2     0.900000E-01   1.00800           0
      7763 MEMB     57       DOPC     H2S      HAL2     0.900000E-01   1.00800           0
      7764 MEMB     57       DOPC     C3       CTL2     0.800000E-01   12.0110           0
      7765 MEMB     57       DOPC     HX       HAL2     0.900000E-01   1.00800           0
      7766 MEMB     57       DOPC     HY       HAL2     0.900000E-01   1.00800           0
      7767 MEMB     57       DOPC     O31      OSL     -0.490000       15.9994           0
      7768 MEMB     57       DOPC     C31      CL       0.900000       12.0110           0
      7769 MEMB     57       DOPC     O32      OBL     -0.630000       15.9994           0
      7770 MEMB     57       DOPC     C32      CTL2    -0.220000       12.0110           0
      7771 MEMB     57       DOPC     H2X      HAL2     0.900000E-01   1.00800           0
      7772 MEMB     57       DOPC     H2Y      HAL2     0.900000E-01   1.00800           0
      7773 MEMB     57       DOPC     C23      CTL2    -0.180000       12.0110           0
      7774 MEMB     57       DOPC     H3R      HAL2     0.900000E-01   1.00800           0
      7775 MEMB     57       DOPC     H3S      HAL2     0.900000E-01   1.00800           0
      7776 MEMB     57       DOPC     C24      CTL2    -0.180000       12.0110           0
      7777 MEMB     57       DOPC     H4R      HAL2     0.900000E-01   1.00800           0
      7778 MEMB     57       DOPC     H4S      HAL2     0.900000E-01   1.00800           0
      7779 MEMB     57       DOPC     C25      CTL2    -0.180000       12.0110           0
      7780 MEMB     57       DOPC     H5R      HAL2     0.900000E-01   1.00800           0
      7781 MEMB     57       DOPC     H5S      HAL2     0.900000E-01   1.00800           0
      7782 MEMB     57       DOPC     C26      CTL2    -0.180000       12.0110           0
      7783 MEMB     57       DOPC     H6R      HAL2     0.900000E-01   1.00800           0
      7784 MEMB     57       DOPC     H6S      HAL2     0.900000E-01   1.00800           0
      7785 MEMB     57       DOPC     C27      CTL2    -0.180000       12.0110           0
      7786 MEMB     57       DOPC     H7R      HAL2     0.900000E-01   1.00800           0
      7787 MEMB     57       DOPC     H7S      HAL2     0.900000E-01   1.00800           0
      7788 MEMB     57       DOPC     C28      CTL2    -0.180000       12.0110           0
      7789 MEMB     57       DOPC     H8R      HAL2     0.900000E-01   1.00800           0
      7790 MEMB     57       DOPC     H8S      HAL2     0.900000E-01   1.00800           0
      7791 MEMB     57       DOPC     C29      CEL1    -0.150000       12.0110           0
      7792 MEMB     57       DOPC     H9R      HEL1     0.150000       1.00800           0
      7793 MEMB     57       DOPC     C210     CEL1    -0.150000       12.0110           0
      7794 MEMB     57       DOPC     H10R     HEL1     0.150000       1.00800           0
      7795 MEMB     57       DOPC     C211     CTL2    -0.180000       12.0110           0
      7796 MEMB     57       DOPC     H11R     HAL2     0.900000E-01   1.00800           0
      7797 MEMB     57       DOPC     H11S     HAL2     0.900000E-01   1.00800           0
      7798 MEMB     57       DOPC     C212     CTL2    -0.180000       12.0110           0
      7799 MEMB     57       DOPC     H12R     HAL2     0.900000E-01   1.00800           0
      7800 MEMB     57       DOPC     H12S     HAL2     0.900000E-01   1.00800           0
      7801 MEMB     57       DOPC     C213     CTL2    -0.180000       12.0110           0
      7802 MEMB     57       DOPC     H13R     HAL2     0.900000E-01   1.00800           0
      7803 MEMB     57       DOPC     H13S     HAL2     0.900000E-01   1.00800           0
      7804 MEMB     57       DOPC     C214     CTL2    -0.180000       12.0110           0
      7805 MEMB     57       DOPC     H14R     HAL2     0.900000E-01   1.00800           0
      7806 MEMB     57       DOPC     H14S     HAL2     0.900000E-01   1.00800           0
      7807 MEMB     57       DOPC     C215     CTL2    -0.180000       12.0110           0
      7808 MEMB     57       DOPC     H15R     HAL2     0.900000E-01   1.00800           0
      7809 MEMB     57       DOPC     H15S     HAL2     0.900000E-01   1.00800           0
      7810 MEMB     57       DOPC     C216     CTL2    -0.180000       12.0110           0
      7811 MEMB     57       DOPC     H16R     HAL2     0.900000E-01   1.00800           0
      7812 MEMB     57       DOPC     H16S     HAL2     0.900000E-01   1.00800           0
      7813 MEMB     57       DOPC     C217     CTL2    -0.180000       12.0110           0
      7814 MEMB     57       DOPC     H17R     HAL2     0.900000E-01   1.00800           0
      7815 MEMB     57       DOPC     H17S     HAL2     0.900000E-01   1.00800           0
      7816 MEMB     57       DOPC     C218     CTL3    -0.270000       12.0110           0
      7817 MEMB     57       DOPC     H18R     HAL3     0.900000E-01   1.00800           0
      7818 MEMB     57       DOPC     H18S     HAL3     0.900000E-01   1.00800           0
      7819 MEMB     57       DOPC     H18T     HAL3     0.900000E-01   1.00800           0
      7820 MEMB     57       DOPC     C33      CTL2    -0.180000       12.0110           0
      7821 MEMB     57       DOPC     H3X      HAL2     0.900000E-01   1.00800           0
      7822 MEMB     57       DOPC     H3Y      HAL2     0.900000E-01   1.00800           0
      7823 MEMB     57       DOPC     C34      CTL2    -0.180000       12.0110           0
      7824 MEMB     57       DOPC     H4X      HAL2     0.900000E-01   1.00800           0
      7825 MEMB     57       DOPC     H4Y      HAL2     0.900000E-01   1.00800           0
      7826 MEMB     57       DOPC     C35      CTL2    -0.180000       12.0110           0
      7827 MEMB     57       DOPC     H5X      HAL2     0.900000E-01   1.00800           0
      7828 MEMB     57       DOPC     H5Y      HAL2     0.900000E-01   1.00800           0
      7829 MEMB     57       DOPC     C36      CTL2    -0.180000       12.0110           0
      7830 MEMB     57       DOPC     H6X      HAL2     0.900000E-01   1.00800           0
      7831 MEMB     57       DOPC     H6Y      HAL2     0.900000E-01   1.00800           0
      7832 MEMB     57       DOPC     C37      CTL2    -0.180000       12.0110           0
      7833 MEMB     57       DOPC     H7X      HAL2     0.900000E-01   1.00800           0
      7834 MEMB     57       DOPC     H7Y      HAL2     0.900000E-01   1.00800           0
      7835 MEMB     57       DOPC     C38      CTL2    -0.180000       12.0110           0
      7836 MEMB     57       DOPC     H8X      HAL2     0.900000E-01   1.00800           0
      7837 MEMB     57       DOPC     H8Y      HAL2     0.900000E-01   1.00800           0
      7838 MEMB     57       DOPC     C39      CEL1    -0.150000       12.0110           0
      7839 MEMB     57       DOPC     H9X      HEL1     0.150000       1.00800           0
      7840 MEMB     57       DOPC     C310     CEL1    -0.150000       12.0110           0
      7841 MEMB     57       DOPC     H10X     HEL1     0.150000       1.00800           0
      7842 MEMB     57       DOPC     C311     CTL2    -0.180000       12.0110           0
      7843 MEMB     57       DOPC     H11X     HAL2     0.900000E-01   1.00800           0
      7844 MEMB     57       DOPC     H11Y     HAL2     0.900000E-01   1.00800           0
      7845 MEMB     57       DOPC     C312     CTL2    -0.180000       12.0110           0
      7846 MEMB     57       DOPC     H12X     HAL2     0.900000E-01   1.00800           0
      7847 MEMB     57       DOPC     H12Y     HAL2     0.900000E-01   1.00800           0
      7848 MEMB     57       DOPC     C313     CTL2    -0.180000       12.0110           0
      7849 MEMB     57       DOPC     H13X     HAL2     0.900000E-01   1.00800           0
      7850 MEMB     57       DOPC     H13Y     HAL2     0.900000E-01   1.00800           0
      7851 MEMB     57       DOPC     C314     CTL2    -0.180000       12.0110           0
      7852 MEMB     57       DOPC     H14X     HAL2     0.900000E-01   1.00800           0
      7853 MEMB     57       DOPC     H14Y     HAL2     0.900000E-01   1.00800           0
      7854 MEMB     57       DOPC     C315     CTL2    -0.180000       12.0110           0
      7855 MEMB     57       DOPC     H15X     HAL2     0.900000E-01   1.00800           0
      7856 MEMB     57       DOPC     H15Y     HAL2     0.900000E-01   1.00800           0
      7857 MEMB     57       DOPC     C316     CTL2    -0.180000       12.0110           0
      7858 MEMB     57       DOPC     H16X     HAL2     0.900000E-01   1.00800           0
      7859 MEMB     57       DOPC     H16Y     HAL2     0.900000E-01   1.00800           0
      7860 MEMB     57       DOPC     C317     CTL2    -0.180000       12.0110           0
      7861 MEMB     57       DOPC     H17X     HAL2     0.900000E-01   1.00800           0
      7862 MEMB     57       DOPC     H17Y     HAL2     0.900000E-01   1.00800           0
      7863 MEMB     57       DOPC     C318     CTL3    -0.270000       12.0110           0
      7864 MEMB     57       DOPC     H18X     HAL3     0.900000E-01   1.00800           0
      7865 MEMB     57       DOPC     H18Y     HAL3     0.900000E-01   1.00800           0
      7866 MEMB     57       DOPC     H18Z     HAL3     0.900000E-01   1.00800           0
      7867 MEMB     58       DOPC     N        NTL     -0.600000       14.0070           0
      7868 MEMB     58       DOPC     C12      CTL2    -0.100000       12.0110           0
      7869 MEMB     58       DOPC     H12A     HL       0.250000       1.00800           0
      7870 MEMB     58       DOPC     H12B     HL       0.250000       1.00800           0
      7871 MEMB     58       DOPC     C13      CTL5    -0.350000       12.0110           0
      7872 MEMB     58       DOPC     H13A     HL       0.250000       1.00800           0
      7873 MEMB     58       DOPC     H13B     HL       0.250000       1.00800           0
      7874 MEMB     58       DOPC     H13C     HL       0.250000       1.00800           0
      7875 MEMB     58       DOPC     C14      CTL5    -0.350000       12.0110           0
      7876 MEMB     58       DOPC     H14A     HL       0.250000       1.00800           0
      7877 MEMB     58       DOPC     H14B     HL       0.250000       1.00800           0
      7878 MEMB     58       DOPC     H14C     HL       0.250000       1.00800           0
      7879 MEMB     58       DOPC     C15      CTL5    -0.350000       12.0110           0
      7880 MEMB     58       DOPC     H15A     HL       0.250000       1.00800           0
      7881 MEMB     58       DOPC     H15B     HL       0.250000       1.00800           0
      7882 MEMB     58       DOPC     H15C     HL       0.250000       1.00800           0
      7883 MEMB     58       DOPC     C11      CTL2    -0.800000E-01   12.0110           0
      7884 MEMB     58       DOPC     H11A     HAL2     0.900000E-01   1.00800           0
      7885 MEMB     58       DOPC     H11B     HAL2     0.900000E-01   1.00800           0
      7886 MEMB     58       DOPC     P        PL        1.50000       30.9740           0
      7887 MEMB     58       DOPC     O13      O2L     -0.780000       15.9994           0
      7888 MEMB     58       DOPC     O14      O2L     -0.780000       15.9994           0
      7889 MEMB     58       DOPC     O12      OSLP    -0.570000       15.9994           0
      7890 MEMB     58       DOPC     O11      OSLP    -0.570000       15.9994           0
      7891 MEMB     58       DOPC     C1       CTL2    -0.800000E-01   12.0110           0
      7892 MEMB     58       DOPC     HA       HAL2     0.900000E-01   1.00800           0
      7893 MEMB     58       DOPC     HB       HAL2     0.900000E-01   1.00800           0
      7894 MEMB     58       DOPC     C2       CTL1     0.170000       12.0110           0
      7895 MEMB     58       DOPC     HS       HAL1     0.900000E-01   1.00800           0
      7896 MEMB     58       DOPC     O21      OSL     -0.490000       15.9994           0
      7897 MEMB     58       DOPC     C21      CL       0.900000       12.0110           0
      7898 MEMB     58       DOPC     O22      OBL     -0.630000       15.9994           0
      7899 MEMB     58       DOPC     C22      CTL2    -0.220000       12.0110           0
      7900 MEMB     58       DOPC     H2R      HAL2     0.900000E-01   1.00800           0
      7901 MEMB     58       DOPC     H2S      HAL2     0.900000E-01   1.00800           0
      7902 MEMB     58       DOPC     C3       CTL2     0.800000E-01   12.0110           0
      7903 MEMB     58       DOPC     HX       HAL2     0.900000E-01   1.00800           0
      7904 MEMB     58       DOPC     HY       HAL2     0.900000E-01   1.00800           0
      7905 MEMB     58       DOPC     O31      OSL     -0.490000       15.9994           0
      7906 MEMB     58       DOPC     C31      CL       0.900000       12.0110           0
      7907 MEMB     58       DOPC     O32      OBL     -0.630000       15.9994           0
      7908 MEMB     58       DOPC     C32      CTL2    -0.220000       12.0110           0
      7909 MEMB     58       DOPC     H2X      HAL2     0.900000E-01   1.00800           0
      7910 MEMB     58       DOPC     H2Y      HAL2     0.900000E-01   1.00800           0
      7911 MEMB     58       DOPC     C23      CTL2    -0.180000       12.0110           0
      7912 MEMB     58       DOPC     H3R      HAL2     0.900000E-01   1.00800           0
      7913 MEMB     58       DOPC     H3S      HAL2     0.900000E-01   1.00800           0
      7914 MEMB     58       DOPC     C24      CTL2    -0.180000       12.0110           0
      7915 MEMB     58       DOPC     H4R      HAL2     0.900000E-01   1.00800           0
      7916 MEMB     58       DOPC     H4S      HAL2     0.900000E-01   1.00800           0
      7917 MEMB     58       DOPC     C25      CTL2    -0.180000       12.0110           0
      7918 MEMB     58       DOPC     H5R      HAL2     0.900000E-01   1.00800           0
      7919 MEMB     58       DOPC     H5S      HAL2     0.900000E-01   1.00800           0
      7920 MEMB     58       DOPC     C26      CTL2    -0.180000       12.0110           0
      7921 MEMB     58       DOPC     H6R      HAL2     0.900000E-01   1.00800           0
      7922 MEMB     58       DOPC     H6S      HAL2     0.900000E-01   1.00800           0
      7923 MEMB     58       DOPC     C27      CTL2    -0.180000       12.0110           0
      7924 MEMB     58       DOPC     H7R      HAL2     0.900000E-01   1.00800           0
      7925 MEMB     58       DOPC     H7S      HAL2     0.900000E-01   1.00800           0
      7926 MEMB     58       DOPC     C28      CTL2    -0.180000       12.0110           0
      7927 MEMB     58       DOPC     H8R      HAL2     0.900000E-01   1.00800           0
      7928 MEMB     58       DOPC     H8S      HAL2     0.900000E-01   1.00800           0
      7929 MEMB     58       DOPC     C29      CEL1    -0.150000       12.0110           0
      7930 MEMB     58       DOPC     H9R      HEL1     0.150000       1.00800           0
      7931 MEMB     58       DOPC     C210     CEL1    -0.150000       12.0110           0
      7932 MEMB     58       DOPC     H10R     HEL1     0.150000       1.00800           0
      7933 MEMB     58       DOPC     C211     CTL2    -0.180000       12.0110           0
      7934 MEMB     58       DOPC     H11R     HAL2     0.900000E-01   1.00800           0
      7935 MEMB     58       DOPC     H11S     HAL2     0.900000E-01   1.00800           0
      7936 MEMB     58       DOPC     C212     CTL2    -0.180000       12.0110           0
      7937 MEMB     58       DOPC     H12R     HAL2     0.900000E-01   1.00800           0
      7938 MEMB     58       DOPC     H12S     HAL2     0.900000E-01   1.00800           0
      7939 MEMB     58       DOPC     C213     CTL2    -0.180000       12.0110           0
      7940 MEMB     58       DOPC     H13R     HAL2     0.900000E-01   1.00800           0
      7941 MEMB     58       DOPC     H13S     HAL2     0.900000E-01   1.00800           0
      7942 MEMB     58       DOPC     C214     CTL2    -0.180000       12.0110           0
      7943 MEMB     58       DOPC     H14R     HAL2     0.900000E-01   1.00800           0
      7944 MEMB     58       DOPC     H14S     HAL2     0.900000E-01   1.00800           0
      7945 MEMB     58       DOPC     C215     CTL2    -0.180000       12.0110           0
      7946 MEMB     58       DOPC     H15R     HAL2     0.900000E-01   1.00800           0
      7947 MEMB     58       DOPC     H15S     HAL2     0.900000E-01   1.00800           0
      7948 MEMB     58       DOPC     C216     CTL2    -0.180000       12.0110           0
      7949 MEMB     58       DOPC     H16R     HAL2     0.900000E-01   1.00800           0
      7950 MEMB     58       DOPC     H16S     HAL2     0.900000E-01   1.00800           0
      7951 MEMB     58       DOPC     C217     CTL2    -0.180000       12.0110           0
      7952 MEMB     58       DOPC     H17R     HAL2     0.900000E-01   1.00800           0
      7953 MEMB     58       DOPC     H17S     HAL2     0.900000E-01   1.00800           0
      7954 MEMB     58       DOPC     C218     CTL3    -0.270000       12.0110           0
      7955 MEMB     58       DOPC     H18R     HAL3     0.900000E-01   1.00800           0
      7956 MEMB     58       DOPC     H18S     HAL3     0.900000E-01   1.00800           0
      7957 MEMB     58       DOPC     H18T     HAL3     0.900000E-01   1.00800           0
      7958 MEMB     58       DOPC     C33      CTL2    -0.180000       12.0110           0
      7959 MEMB     58       DOPC     H3X      HAL2     0.900000E-01   1.00800           0
      7960 MEMB     58       DOPC     H3Y      HAL2     0.900000E-01   1.00800           0
      7961 MEMB     58       DOPC     C34      CTL2    -0.180000       12.0110           0
      7962 MEMB     58       DOPC     H4X      HAL2     0.900000E-01   1.00800           0
      7963 MEMB     58       DOPC     H4Y      HAL2     0.900000E-01   1.00800           0
      7964 MEMB     58       DOPC     C35      CTL2    -0.180000       12.0110           0
      7965 MEMB     58       DOPC     H5X      HAL2     0.900000E-01   1.00800           0
      7966 MEMB     58       DOPC     H5Y      HAL2     0.900000E-01   1.00800           0
      7967 MEMB     58       DOPC     C36      CTL2    -0.180000       12.0110           0
      7968 MEMB     58       DOPC     H6X      HAL2     0.900000E-01   1.00800           0
      7969 MEMB     58       DOPC     H6Y      HAL2     0.900000E-01   1.00800           0
      7970 MEMB     58       DOPC     C37      CTL2    -0.180000       12.0110           0
      7971 MEMB     58       DOPC     H7X      HAL2     0.900000E-01   1.00800           0
      7972 MEMB     58       DOPC     H7Y      HAL2     0.900000E-01   1.00800           0
      7973 MEMB     58       DOPC     C38      CTL2    -0.180000       12.0110           0
      7974 MEMB     58       DOPC     H8X      HAL2     0.900000E-01   1.00800           0
      7975 MEMB     58       DOPC     H8Y      HAL2     0.900000E-01   1.00800           0
      7976 MEMB     58       DOPC     C39      CEL1    -0.150000       12.0110           0
      7977 MEMB     58       DOPC     H9X      HEL1     0.150000       1.00800           0
      7978 MEMB     58       DOPC     C310     CEL1    -0.150000       12.0110           0
      7979 MEMB     58       DOPC     H10X     HEL1     0.150000       1.00800           0
      7980 MEMB     58       DOPC     C311     CTL2    -0.180000       12.0110           0
      7981 MEMB     58       DOPC     H11X     HAL2     0.900000E-01   1.00800           0
      7982 MEMB     58       DOPC     H11Y     HAL2     0.900000E-01   1.00800           0
      7983 MEMB     58       DOPC     C312     CTL2    -0.180000       12.0110           0
      7984 MEMB     58       DOPC     H12X     HAL2     0.900000E-01   1.00800           0
      7985 MEMB     58       DOPC     H12Y     HAL2     0.900000E-01   1.00800           0
      7986 MEMB     58       DOPC     C313     CTL2    -0.180000       12.0110           0
      7987 MEMB     58       DOPC     H13X     HAL2     0.900000E-01   1.00800           0
      7988 MEMB     58       DOPC     H13Y     HAL2     0.900000E-01   1.00800           0
      7989 MEMB     58       DOPC     C314     CTL2    -0.180000       12.0110           0
      7990 MEMB     58       DOPC     H14X     HAL2     0.900000E-01   1.00800           0
      7991 MEMB     58       DOPC     H14Y     HAL2     0.900000E-01   1.00800           0
      7992 MEMB     58       DOPC     C315     CTL2    -0.180000       12.0110           0
      7993 MEMB     58       DOPC     H15X     HAL2     0.900000E-01   1.00800           0
      7994 MEMB     58       DOPC     H15Y     HAL2     0.900000E-01   1.00800           0
      7995 MEMB     58       DOPC     C316     CTL2    -0.180000       12.0110           0
      7996 MEMB     58       DOPC     H16X     HAL2     0.900000E-01   1.00800           0
      7997 MEMB     58       DOPC     H16Y     HAL2     0.900000E-01   1.00800           0
      7998 MEMB     58       DOPC     C317     CTL2    -0.180000       12.0110           0
      7999 MEMB     58       DOPC     H17X     HAL2     0.900000E-01   1.00800           0
      8000 MEMB     58       DOPC     H17Y     HAL2     0.900000E-01   1.00800           0
      8001 MEMB     58       DOPC     C318     CTL3    -0.270000       12.0110           0
      8002 MEMB     58       DOPC     H18X     HAL3     0.900000E-01   1.00800           0
      8003 MEMB     58       DOPC     H18Y     HAL3     0.900000E-01   1.00800           0
      8004 MEMB     58       DOPC     H18Z     HAL3     0.900000E-01   1.00800           0
      8005 MEMB     59       DOPC     N        NTL     -0.600000       14.0070           0
      8006 MEMB     59       DOPC     C12      CTL2    -0.100000       12.0110           0
      8007 MEMB     59       DOPC     H12A     HL       0.250000       1.00800           0
      8008 MEMB     59       DOPC     H12B     HL       0.250000       1.00800           0
      8009 MEMB     59       DOPC     C13      CTL5    -0.350000       12.0110           0
      8010 MEMB     59       DOPC     H13A     HL       0.250000       1.00800           0
      8011 MEMB     59       DOPC     H13B     HL       0.250000       1.00800           0
      8012 MEMB     59       DOPC     H13C     HL       0.250000       1.00800           0
      8013 MEMB     59       DOPC     C14      CTL5    -0.350000       12.0110           0
      8014 MEMB     59       DOPC     H14A     HL       0.250000       1.00800           0
      8015 MEMB     59       DOPC     H14B     HL       0.250000       1.00800           0
      8016 MEMB     59       DOPC     H14C     HL       0.250000       1.00800           0
      8017 MEMB     59       DOPC     C15      CTL5    -0.350000       12.0110           0
      8018 MEMB     59       DOPC     H15A     HL       0.250000       1.00800           0
      8019 MEMB     59       DOPC     H15B     HL       0.250000       1.00800           0
      8020 MEMB     59       DOPC     H15C     HL       0.250000       1.00800           0
      8021 MEMB     59       DOPC     C11      CTL2    -0.800000E-01   12.0110           0
      8022 MEMB     59       DOPC     H11A     HAL2     0.900000E-01   1.00800           0
      8023 MEMB     59       DOPC     H11B     HAL2     0.900000E-01   1.00800           0
      8024 MEMB     59       DOPC     P        PL        1.50000       30.9740           0
      8025 MEMB     59       DOPC     O13      O2L     -0.780000       15.9994           0
      8026 MEMB     59       DOPC     O14      O2L     -0.780000       15.9994           0
      8027 MEMB     59       DOPC     O12      OSLP    -0.570000       15.9994           0
      8028 MEMB     59       DOPC     O11      OSLP    -0.570000       15.9994           0
      8029 MEMB     59       DOPC     C1       CTL2    -0.800000E-01   12.0110           0
      8030 MEMB     59       DOPC     HA       HAL2     0.900000E-01   1.00800           0
      8031 MEMB     59       DOPC     HB       HAL2     0.900000E-01   1.00800           0
      8032 MEMB     59       DOPC     C2       CTL1     0.170000       12.0110           0
      8033 MEMB     59       DOPC     HS       HAL1     0.900000E-01   1.00800           0
      8034 MEMB     59       DOPC     O21      OSL     -0.490000       15.9994           0
      8035 MEMB     59       DOPC     C21      CL       0.900000       12.0110           0
      8036 MEMB     59       DOPC     O22      OBL     -0.630000       15.9994           0
      8037 MEMB     59       DOPC     C22      CTL2    -0.220000       12.0110           0
      8038 MEMB     59       DOPC     H2R      HAL2     0.900000E-01   1.00800           0
      8039 MEMB     59       DOPC     H2S      HAL2     0.900000E-01   1.00800           0
      8040 MEMB     59       DOPC     C3       CTL2     0.800000E-01   12.0110           0
      8041 MEMB     59       DOPC     HX       HAL2     0.900000E-01   1.00800           0
      8042 MEMB     59       DOPC     HY       HAL2     0.900000E-01   1.00800           0
      8043 MEMB     59       DOPC     O31      OSL     -0.490000       15.9994           0
      8044 MEMB     59       DOPC     C31      CL       0.900000       12.0110           0
      8045 MEMB     59       DOPC     O32      OBL     -0.630000       15.9994           0
      8046 MEMB     59       DOPC     C32      CTL2    -0.220000       12.0110           0
      8047 MEMB     59       DOPC     H2X      HAL2     0.900000E-01   1.00800           0
      8048 MEMB     59       DOPC     H2Y      HAL2     0.900000E-01   1.00800           0
      8049 MEMB     59       DOPC     C23      CTL2    -0.180000       12.0110           0
      8050 MEMB     59       DOPC     H3R      HAL2     0.900000E-01   1.00800           0
      8051 MEMB     59       DOPC     H3S      HAL2     0.900000E-01   1.00800           0
      8052 MEMB     59       DOPC     C24      CTL2    -0.180000       12.0110           0
      8053 MEMB     59       DOPC     H4R      HAL2     0.900000E-01   1.00800           0
      8054 MEMB     59       DOPC     H4S      HAL2     0.900000E-01   1.00800           0
      8055 MEMB     59       DOPC     C25      CTL2    -0.180000       12.0110           0
      8056 MEMB     59       DOPC     H5R      HAL2     0.900000E-01   1.00800           0
      8057 MEMB     59       DOPC     H5S      HAL2     0.900000E-01   1.00800           0
      8058 MEMB     59       DOPC     C26      CTL2    -0.180000       12.0110           0
      8059 MEMB     59       DOPC     H6R      HAL2     0.900000E-01   1.00800           0
      8060 MEMB     59       DOPC     H6S      HAL2     0.900000E-01   1.00800           0
      8061 MEMB     59       DOPC     C27      CTL2    -0.180000       12.0110           0
      8062 MEMB     59       DOPC     H7R      HAL2     0.900000E-01   1.00800           0
      8063 MEMB     59       DOPC     H7S      HAL2     0.900000E-01   1.00800           0
      8064 MEMB     59       DOPC     C28      CTL2    -0.180000       12.0110           0
      8065 MEMB     59       DOPC     H8R      HAL2     0.900000E-01   1.00800           0
      8066 MEMB     59       DOPC     H8S      HAL2     0.900000E-01   1.00800           0
      8067 MEMB     59       DOPC     C29      CEL1    -0.150000       12.0110           0
      8068 MEMB     59       DOPC     H9R      HEL1     0.150000       1.00800           0
      8069 MEMB     59       DOPC     C210     CEL1    -0.150000       12.0110           0
      8070 MEMB     59       DOPC     H10R     HEL1     0.150000       1.00800           0
      8071 MEMB     59       DOPC     C211     CTL2    -0.180000       12.0110           0
      8072 MEMB     59       DOPC     H11R     HAL2     0.900000E-01   1.00800           0
      8073 MEMB     59       DOPC     H11S     HAL2     0.900000E-01   1.00800           0
      8074 MEMB     59       DOPC     C212     CTL2    -0.180000       12.0110           0
      8075 MEMB     59       DOPC     H12R     HAL2     0.900000E-01   1.00800           0
      8076 MEMB     59       DOPC     H12S     HAL2     0.900000E-01   1.00800           0
      8077 MEMB     59       DOPC     C213     CTL2    -0.180000       12.0110           0
      8078 MEMB     59       DOPC     H13R     HAL2     0.900000E-01   1.00800           0
      8079 MEMB     59       DOPC     H13S     HAL2     0.900000E-01   1.00800           0
      8080 MEMB     59       DOPC     C214     CTL2    -0.180000       12.0110           0
      8081 MEMB     59       DOPC     H14R     HAL2     0.900000E-01   1.00800           0
      8082 MEMB     59       DOPC     H14S     HAL2     0.900000E-01   1.00800           0
      8083 MEMB     59       DOPC     C215     CTL2    -0.180000       12.0110           0
      8084 MEMB     59       DOPC     H15R     HAL2     0.900000E-01   1.00800           0
      8085 MEMB     59       DOPC     H15S     HAL2     0.900000E-01   1.00800           0
      8086 MEMB     59       DOPC     C216     CTL2    -0.180000       12.0110           0
      8087 MEMB     59       DOPC     H16R     HAL2     0.900000E-01   1.00800           0
      8088 MEMB     59       DOPC     H16S     HAL2     0.900000E-01   1.00800           0
      8089 MEMB     59       DOPC     C217     CTL2    -0.180000       12.0110           0
      8090 MEMB     59       DOPC     H17R     HAL2     0.900000E-01   1.00800           0
      8091 MEMB     59       DOPC     H17S     HAL2     0.900000E-01   1.00800           0
      8092 MEMB     59       DOPC     C218     CTL3    -0.270000       12.0110           0
      8093 MEMB     59       DOPC     H18R     HAL3     0.900000E-01   1.00800           0
      8094 MEMB     59       DOPC     H18S     HAL3     0.900000E-01   1.00800           0
      8095 MEMB     59       DOPC     H18T     HAL3     0.900000E-01   1.00800           0
      8096 MEMB     59       DOPC     C33      CTL2    -0.180000       12.0110           0
      8097 MEMB     59       DOPC     H3X      HAL2     0.900000E-01   1.00800           0
      8098 MEMB     59       DOPC     H3Y      HAL2     0.900000E-01   1.00800           0
      8099 MEMB     59       DOPC     C34      CTL2    -0.180000       12.0110           0
      8100 MEMB     59       DOPC     H4X      HAL2     0.900000E-01   1.00800           0
      8101 MEMB     59       DOPC     H4Y      HAL2     0.900000E-01   1.00800           0
      8102 MEMB     59       DOPC     C35      CTL2    -0.180000       12.0110           0
      8103 MEMB     59       DOPC     H5X      HAL2     0.900000E-01   1.00800           0
      8104 MEMB     59       DOPC     H5Y      HAL2     0.900000E-01   1.00800           0
      8105 MEMB     59       DOPC     C36      CTL2    -0.180000       12.0110           0
      8106 MEMB     59       DOPC     H6X      HAL2     0.900000E-01   1.00800           0
      8107 MEMB     59       DOPC     H6Y      HAL2     0.900000E-01   1.00800           0
      8108 MEMB     59       DOPC     C37      CTL2    -0.180000       12.0110           0
      8109 MEMB     59       DOPC     H7X      HAL2     0.900000E-01   1.00800           0
      8110 MEMB     59       DOPC     H7Y      HAL2     0.900000E-01   1.00800           0
      8111 MEMB     59       DOPC     C38      CTL2    -0.180000       12.0110           0
      8112 MEMB     59       DOPC     H8X      HAL2     0.900000E-01   1.00800           0
      8113 MEMB     59       DOPC     H8Y      HAL2     0.900000E-01   1.00800           0
      8114 MEMB     59       DOPC     C39      CEL1    -0.150000       12.0110           0
      8115 MEMB     59       DOPC     H9X      HEL1     0.150000       1.00800           0
      8116 MEMB     59       DOPC     C310     CEL1    -0.150000       12.0110           0
      8117 MEMB     59       DOPC     H10X     HEL1     0.150000       1.00800           0
      8118 MEMB     59       DOPC     C311     CTL2    -0.180000       12.0110           0
      8119 MEMB     59       DOPC     H11X     HAL2     0.900000E-01   1.00800           0
      8120 MEMB     59       DOPC     H11Y     HAL2     0.900000E-01   1.00800           0
      8121 MEMB     59       DOPC     C312     CTL2    -0.180000       12.0110           0
      8122 MEMB     59       DOPC     H12X     HAL2     0.900000E-01   1.00800           0
      8123 MEMB     59       DOPC     H12Y     HAL2     0.900000E-01   1.00800           0
      8124 MEMB     59       DOPC     C313     CTL2    -0.180000       12.0110           0
      8125 MEMB     59       DOPC     H13X     HAL2     0.900000E-01   1.00800           0
      8126 MEMB     59       DOPC     H13Y     HAL2     0.900000E-01   1.00800           0
      8127 MEMB     59       DOPC     C314     CTL2    -0.180000       12.0110           0
      8128 MEMB     59       DOPC     H14X     HAL2     0.900000E-01   1.00800           0
      8129 MEMB     59       DOPC     H14Y     HAL2     0.900000E-01   1.00800           0
      8130 MEMB     59       DOPC     C315     CTL2    -0.180000       12.0110           0
      8131 MEMB     59       DOPC     H15X     HAL2     0.900000E-01   1.00800           0
      8132 MEMB     59       DOPC     H15Y     HAL2     0.900000E-01   1.00800           0
      8133 MEMB     59       DOPC     C316     CTL2    -0.180000       12.0110           0
      8134 MEMB     59       DOPC     H16X     HAL2     0.900000E-01   1.00800           0
      8135 MEMB     59       DOPC     H16Y     HAL2     0.900000E-01   1.00800           0
      8136 MEMB     59       DOPC     C317     CTL2    -0.180000       12.0110           0
      8137 MEMB     59       DOPC     H17X     HAL2     0.900000E-01   1.00800           0
      8138 MEMB     59       DOPC     H17Y     HAL2     0.900000E-01   1.00800           0
      8139 MEMB     59       DOPC     C318     CTL3    -0.270000       12.0110           0
      8140 MEMB     59       DOPC     H18X     HAL3     0.900000E-01   1.00800           0
      8141 MEMB     59       DOPC     H18Y     HAL3     0.900000E-01   1.00800           0
      8142 MEMB     59       DOPC     H18Z     HAL3     0.900000E-01   1.00800           0
      8143 MEMB     60       DOPC     N        NTL     -0.600000       14.0070           0
      8144 MEMB     60       DOPC     C12      CTL2    -0.100000       12.0110           0
      8145 MEMB     60       DOPC     H12A     HL       0.250000       1.00800           0
      8146 MEMB     60       DOPC     H12B     HL       0.250000       1.00800           0
      8147 MEMB     60       DOPC     C13      CTL5    -0.350000       12.0110           0
      8148 MEMB     60       DOPC     H13A     HL       0.250000       1.00800           0
      8149 MEMB     60       DOPC     H13B     HL       0.250000       1.00800           0
      8150 MEMB     60       DOPC     H13C     HL       0.250000       1.00800           0
      8151 MEMB     60       DOPC     C14      CTL5    -0.350000       12.0110           0
      8152 MEMB     60       DOPC     H14A     HL       0.250000       1.00800           0
      8153 MEMB     60       DOPC     H14B     HL       0.250000       1.00800           0
      8154 MEMB     60       DOPC     H14C     HL       0.250000       1.00800           0
      8155 MEMB     60       DOPC     C15      CTL5    -0.350000       12.0110           0
      8156 MEMB     60       DOPC     H15A     HL       0.250000       1.00800           0
      8157 MEMB     60       DOPC     H15B     HL       0.250000       1.00800           0
      8158 MEMB     60       DOPC     H15C     HL       0.250000       1.00800           0
      8159 MEMB     60       DOPC     C11      CTL2    -0.800000E-01   12.0110           0
      8160 MEMB     60       DOPC     H11A     HAL2     0.900000E-01   1.00800           0
      8161 MEMB     60       DOPC     H11B     HAL2     0.900000E-01   1.00800           0
      8162 MEMB     60       DOPC     P        PL        1.50000       30.9740           0
      8163 MEMB     60       DOPC     O13      O2L     -0.780000       15.9994           0
      8164 MEMB     60       DOPC     O14      O2L     -0.780000       15.9994           0
      8165 MEMB     60       DOPC     O12      OSLP    -0.570000       15.9994           0
      8166 MEMB     60       DOPC     O11      OSLP    -0.570000       15.9994           0
      8167 MEMB     60       DOPC     C1       CTL2    -0.800000E-01   12.0110           0
      8168 MEMB     60       DOPC     HA       HAL2     0.900000E-01   1.00800           0
      8169 MEMB     60       DOPC     HB       HAL2     0.900000E-01   1.00800           0
      8170 MEMB     60       DOPC     C2       CTL1     0.170000       12.0110           0
      8171 MEMB     60       DOPC     HS       HAL1     0.900000E-01   1.00800           0
      8172 MEMB     60       DOPC     O21      OSL     -0.490000       15.9994           0
      8173 MEMB     60       DOPC     C21      CL       0.900000       12.0110           0
      8174 MEMB     60       DOPC     O22      OBL     -0.630000       15.9994           0
      8175 MEMB     60       DOPC     C22      CTL2    -0.220000       12.0110           0
      8176 MEMB     60       DOPC     H2R      HAL2     0.900000E-01   1.00800           0
      8177 MEMB     60       DOPC     H2S      HAL2     0.900000E-01   1.00800           0
      8178 MEMB     60       DOPC     C3       CTL2     0.800000E-01   12.0110           0
      8179 MEMB     60       DOPC     HX       HAL2     0.900000E-01   1.00800           0
      8180 MEMB     60       DOPC     HY       HAL2     0.900000E-01   1.00800           0
      8181 MEMB     60       DOPC     O31      OSL     -0.490000       15.9994           0
      8182 MEMB     60       DOPC     C31      CL       0.900000       12.0110           0
      8183 MEMB     60       DOPC     O32      OBL     -0.630000       15.9994           0
      8184 MEMB     60       DOPC     C32      CTL2    -0.220000       12.0110           0
      8185 MEMB     60       DOPC     H2X      HAL2     0.900000E-01   1.00800           0
      8186 MEMB     60       DOPC     H2Y      HAL2     0.900000E-01   1.00800           0
      8187 MEMB     60       DOPC     C23      CTL2    -0.180000       12.0110           0
      8188 MEMB     60       DOPC     H3R      HAL2     0.900000E-01   1.00800           0
      8189 MEMB     60       DOPC     H3S      HAL2     0.900000E-01   1.00800           0
      8190 MEMB     60       DOPC     C24      CTL2    -0.180000       12.0110           0
      8191 MEMB     60       DOPC     H4R      HAL2     0.900000E-01   1.00800           0
      8192 MEMB     60       DOPC     H4S      HAL2     0.900000E-01   1.00800           0
      8193 MEMB     60       DOPC     C25      CTL2    -0.180000       12.0110           0
      8194 MEMB     60       DOPC     H5R      HAL2     0.900000E-01   1.00800           0
      8195 MEMB     60       DOPC     H5S      HAL2     0.900000E-01   1.00800           0
      8196 MEMB     60       DOPC     C26      CTL2    -0.180000       12.0110           0
      8197 MEMB     60       DOPC     H6R      HAL2     0.900000E-01   1.00800           0
      8198 MEMB     60       DOPC     H6S      HAL2     0.900000E-01   1.00800           0
      8199 MEMB     60       DOPC     C27      CTL2    -0.180000       12.0110           0
      8200 MEMB     60       DOPC     H7R      HAL2     0.900000E-01   1.00800           0
      8201 MEMB     60       DOPC     H7S      HAL2     0.900000E-01   1.00800           0
      8202 MEMB     60       DOPC     C28      CTL2    -0.180000       12.0110           0
      8203 MEMB     60       DOPC     H8R      HAL2     0.900000E-01   1.00800           0
      8204 MEMB     60       DOPC     H8S      HAL2     0.900000E-01   1.00800           0
      8205 MEMB     60       DOPC     C29      CEL1    -0.150000       12.0110           0
      8206 MEMB     60       DOPC     H9R      HEL1     0.150000       1.00800           0
      8207 MEMB     60       DOPC     C210     CEL1    -0.150000       12.0110           0
      8208 MEMB     60       DOPC     H10R     HEL1     0.150000       1.00800           0
      8209 MEMB     60       DOPC     C211     CTL2    -0.180000       12.0110           0
      8210 MEMB     60       DOPC     H11R     HAL2     0.900000E-01   1.00800           0
      8211 MEMB     60       DOPC     H11S     HAL2     0.900000E-01   1.00800           0
      8212 MEMB     60       DOPC     C212     CTL2    -0.180000       12.0110           0
      8213 MEMB     60       DOPC     H12R     HAL2     0.900000E-01   1.00800           0
      8214 MEMB     60       DOPC     H12S     HAL2     0.900000E-01   1.00800           0
      8215 MEMB     60       DOPC     C213     CTL2    -0.180000       12.0110           0
      8216 MEMB     60       DOPC     H13R     HAL2     0.900000E-01   1.00800           0
      8217 MEMB     60       DOPC     H13S     HAL2     0.900000E-01   1.00800           0
      8218 MEMB     60       DOPC     C214     CTL2    -0.180000       12.0110           0
      8219 MEMB     60       DOPC     H14R     HAL2     0.900000E-01   1.00800           0
      8220 MEMB     60       DOPC     H14S     HAL2     0.900000E-01   1.00800           0
      8221 MEMB     60       DOPC     C215     CTL2    -0.180000       12.0110           0
      8222 MEMB     60       DOPC     H15R     HAL2     0.900000E-01   1.00800           0
      8223 MEMB     60       DOPC     H15S     HAL2     0.900000E-01   1.00800           0
      8224 MEMB     60       DOPC     C216     CTL2    -0.180000       12.0110           0
      8225 MEMB     60       DOPC     H16R     HAL2     0.900000E-01   1.00800           0
      8226 MEMB     60       DOPC     H16S     HAL2     0.900000E-01   1.00800           0
      8227 MEMB     60       DOPC     C217     CTL2    -0.180000       12.0110           0
      8228 MEMB     60       DOPC     H17R     HAL2     0.900000E-01   1.00800           0
      8229 MEMB     60       DOPC     H17S     HAL2     0.900000E-01   1.00800           0
      8230 MEMB     60       DOPC     C218     CTL3    -0.270000       12.0110           0
      8231 MEMB     60       DOPC     H18R     HAL3     0.900000E-01   1.00800           0
      8232 MEMB     60       DOPC     H18S     HAL3     0.900000E-01   1.00800           0
      8233 MEMB     60       DOPC     H18T     HAL3     0.900000E-01   1.00800           0
      8234 MEMB     60       DOPC     C33      CTL2    -0.180000       12.0110           0
      8235 MEMB     60       DOPC     H3X      HAL2     0.900000E-01   1.00800           0
      8236 MEMB     60       DOPC     H3Y      HAL2     0.900000E-01   1.00800           0
      8237 MEMB     60       DOPC     C34      CTL2    -0.180000       12.0110           0
      8238 MEMB     60       DOPC     H4X      HAL2     0.900000E-01   1.00800           0
      8239 MEMB     60       DOPC     H4Y      HAL2     0.900000E-01   1.00800           0
      8240 MEMB     60       DOPC     C35      CTL2    -0.180000       12.0110           0
      8241 MEMB     60       DOPC     H5X      HAL2     0.900000E-01   1.00800           0
      8242 MEMB     60       DOPC     H5Y      HAL2     0.900000E-01   1.00800           0
      8243 MEMB     60       DOPC     C36      CTL2    -0.180000       12.0110           0
      8244 MEMB     60       DOPC     H6X      HAL2     0.900000E-01   1.00800           0
      8245 MEMB     60       DOPC     H6Y      HAL2     0.900000E-01   1.00800           0
      8246 MEMB     60       DOPC     C37      CTL2    -0.180000       12.0110           0
      8247 MEMB     60       DOPC     H7X      HAL2     0.900000E-01   1.00800           0
      8248 MEMB     60       DOPC     H7Y      HAL2     0.900000E-01   1.00800           0
      8249 MEMB     60       DOPC     C38      CTL2    -0.180000       12.0110           0
      8250 MEMB     60       DOPC     H8X      HAL2     0.900000E-01   1.00800           0
      8251 MEMB     60       DOPC     H8Y      HAL2     0.900000E-01   1.00800           0
      8252 MEMB     60       DOPC     C39      CEL1    -0.150000       12.0110           0
      8253 MEMB     60       DOPC     H9X      HEL1     0.150000       1.00800           0
      8254 MEMB     60       DOPC     C310     CEL1    -0.150000       12.0110           0
      8255 MEMB     60       DOPC     H10X     HEL1     0.150000       1.00800           0
      8256 MEMB     60       DOPC     C311     CTL2    -0.180000       12.0110           0
      8257 MEMB     60       DOPC     H11X     HAL2     0.900000E-01   1.00800           0
      8258 MEMB     60       DOPC     H11Y     HAL2     0.900000E-01   1.00800           0
      8259 MEMB     60       DOPC     C312     CTL2    -0.180000       12.0110           0
      8260 MEMB     60       DOPC     H12X     HAL2     0.900000E-01   1.00800           0
      8261 MEMB     60       DOPC     H12Y     HAL2     0.900000E-01   1.00800           0
      8262 MEMB     60       DOPC     C313     CTL2    -0.180000       12.0110           0
      8263 MEMB     60       DOPC     H13X     HAL2     0.900000E-01   1.00800           0
      8264 MEMB     60       DOPC     H13Y     HAL2     0.900000E-01   1.00800           0
      8265 MEMB     60       DOPC     C314     CTL2    -0.180000       12.0110           0
      8266 MEMB     60       DOPC     H14X     HAL2     0.900000E-01   1.00800           0
      8267 MEMB     60       DOPC     H14Y     HAL2     0.900000E-01   1.00800           0
      8268 MEMB     60       DOPC     C315     CTL2    -0.180000       12.0110           0
      8269 MEMB     60       DOPC     H15X     HAL2     0.900000E-01   1.00800           0
      8270 MEMB     60       DOPC     H15Y     HAL2     0.900000E-01   1.00800           0
      8271 MEMB     60       DOPC     C316     CTL2    -0.180000       12.0110           0
      8272 MEMB     60       DOPC     H16X     HAL2     0.900000E-01   1.00800           0
      8273 MEMB     60       DOPC     H16Y     HAL2     0.900000E-01   1.00800           0
      8274 MEMB     60       DOPC     C317     CTL2    -0.180000       12.0110           0
      8275 MEMB     60       DOPC     H17X     HAL2     0.900000E-01   1.00800           0
      8276 MEMB     60       DOPC     H17Y     HAL2     0.900000E-01   1.00800           0
      8277 MEMB     60       DOPC     C318     CTL3    -0.270000       12.0110           0
      8278 MEMB     60       DOPC     H18X     HAL3     0.900000E-01   1.00800           0
      8279 MEMB     60       DOPC     H18Y     HAL3     0.900000E-01   1.00800           0
      8280 MEMB     60       DOPC     H18Z     HAL3     0.900000E-01   1.00800           0
      8281 MEMB     61       DOPC     N        NTL     -0.600000       14.0070           0
      8282 MEMB     61       DOPC     C12      CTL2    -0.100000       12.0110           0
      8283 MEMB     61       DOPC     H12A     HL       0.250000       1.00800           0
      8284 MEMB     61       DOPC     H12B     HL       0.250000       1.00800           0
      8285 MEMB     61       DOPC     C13      CTL5    -0.350000       12.0110           0
      8286 MEMB     61       DOPC     H13A     HL       0.250000       1.00800           0
      8287 MEMB     61       DOPC     H13B     HL       0.250000       1.00800           0
      8288 MEMB     61       DOPC     H13C     HL       0.250000       1.00800           0
      8289 MEMB     61       DOPC     C14      CTL5    -0.350000       12.0110           0
      8290 MEMB     61       DOPC     H14A     HL       0.250000       1.00800           0
      8291 MEMB     61       DOPC     H14B     HL       0.250000       1.00800           0
      8292 MEMB     61       DOPC     H14C     HL       0.250000       1.00800           0
      8293 MEMB     61       DOPC     C15      CTL5    -0.350000       12.0110           0
      8294 MEMB     61       DOPC     H15A     HL       0.250000       1.00800           0
      8295 MEMB     61       DOPC     H15B     HL       0.250000       1.00800           0
      8296 MEMB     61       DOPC     H15C     HL       0.250000       1.00800           0
      8297 MEMB     61       DOPC     C11      CTL2    -0.800000E-01   12.0110           0
      8298 MEMB     61       DOPC     H11A     HAL2     0.900000E-01   1.00800           0
      8299 MEMB     61       DOPC     H11B     HAL2     0.900000E-01   1.00800           0
      8300 MEMB     61       DOPC     P        PL        1.50000       30.9740           0
      8301 MEMB     61       DOPC     O13      O2L     -0.780000       15.9994           0
      8302 MEMB     61       DOPC     O14      O2L     -0.780000       15.9994           0
      8303 MEMB     61       DOPC     O12      OSLP    -0.570000       15.9994           0
      8304 MEMB     61       DOPC     O11      OSLP    -0.570000       15.9994           0
      8305 MEMB     61       DOPC     C1       CTL2    -0.800000E-01   12.0110           0
      8306 MEMB     61       DOPC     HA       HAL2     0.900000E-01   1.00800           0
      8307 MEMB     61       DOPC     HB       HAL2     0.900000E-01   1.00800           0
      8308 MEMB     61       DOPC     C2       CTL1     0.170000       12.0110           0
      8309 MEMB     61       DOPC     HS       HAL1     0.900000E-01   1.00800           0
      8310 MEMB     61       DOPC     O21      OSL     -0.490000       15.9994           0
      8311 MEMB     61       DOPC     C21      CL       0.900000       12.0110           0
      8312 MEMB     61       DOPC     O22      OBL     -0.630000       15.9994           0
      8313 MEMB     61       DOPC     C22      CTL2    -0.220000       12.0110           0
      8314 MEMB     61       DOPC     H2R      HAL2     0.900000E-01   1.00800           0
      8315 MEMB     61       DOPC     H2S      HAL2     0.900000E-01   1.00800           0
      8316 MEMB     61       DOPC     C3       CTL2     0.800000E-01   12.0110           0
      8317 MEMB     61       DOPC     HX       HAL2     0.900000E-01   1.00800           0
      8318 MEMB     61       DOPC     HY       HAL2     0.900000E-01   1.00800           0
      8319 MEMB     61       DOPC     O31      OSL     -0.490000       15.9994           0
      8320 MEMB     61       DOPC     C31      CL       0.900000       12.0110           0
      8321 MEMB     61       DOPC     O32      OBL     -0.630000       15.9994           0
      8322 MEMB     61       DOPC     C32      CTL2    -0.220000       12.0110           0
      8323 MEMB     61       DOPC     H2X      HAL2     0.900000E-01   1.00800           0
      8324 MEMB     61       DOPC     H2Y      HAL2     0.900000E-01   1.00800           0
      8325 MEMB     61       DOPC     C23      CTL2    -0.180000       12.0110           0
      8326 MEMB     61       DOPC     H3R      HAL2     0.900000E-01   1.00800           0
      8327 MEMB     61       DOPC     H3S      HAL2     0.900000E-01   1.00800           0
      8328 MEMB     61       DOPC     C24      CTL2    -0.180000       12.0110           0
      8329 MEMB     61       DOPC     H4R      HAL2     0.900000E-01   1.00800           0
      8330 MEMB     61       DOPC     H4S      HAL2     0.900000E-01   1.00800           0
      8331 MEMB     61       DOPC     C25      CTL2    -0.180000       12.0110           0
      8332 MEMB     61       DOPC     H5R      HAL2     0.900000E-01   1.00800           0
      8333 MEMB     61       DOPC     H5S      HAL2     0.900000E-01   1.00800           0
      8334 MEMB     61       DOPC     C26      CTL2    -0.180000       12.0110           0
      8335 MEMB     61       DOPC     H6R      HAL2     0.900000E-01   1.00800           0
      8336 MEMB     61       DOPC     H6S      HAL2     0.900000E-01   1.00800           0
      8337 MEMB     61       DOPC     C27      CTL2    -0.180000       12.0110           0
      8338 MEMB     61       DOPC     H7R      HAL2     0.900000E-01   1.00800           0
      8339 MEMB     61       DOPC     H7S      HAL2     0.900000E-01   1.00800           0
      8340 MEMB     61       DOPC     C28      CTL2    -0.180000       12.0110           0
      8341 MEMB     61       DOPC     H8R      HAL2     0.900000E-01   1.00800           0
      8342 MEMB     61       DOPC     H8S      HAL2     0.900000E-01   1.00800           0
      8343 MEMB     61       DOPC     C29      CEL1    -0.150000       12.0110           0
      8344 MEMB     61       DOPC     H9R      HEL1     0.150000       1.00800           0
      8345 MEMB     61       DOPC     C210     CEL1    -0.150000       12.0110           0
      8346 MEMB     61       DOPC     H10R     HEL1     0.150000       1.00800           0
      8347 MEMB     61       DOPC     C211     CTL2    -0.180000       12.0110           0
      8348 MEMB     61       DOPC     H11R     HAL2     0.900000E-01   1.00800           0
      8349 MEMB     61       DOPC     H11S     HAL2     0.900000E-01   1.00800           0
      8350 MEMB     61       DOPC     C212     CTL2    -0.180000       12.0110           0
      8351 MEMB     61       DOPC     H12R     HAL2     0.900000E-01   1.00800           0
      8352 MEMB     61       DOPC     H12S     HAL2     0.900000E-01   1.00800           0
      8353 MEMB     61       DOPC     C213     CTL2    -0.180000       12.0110           0
      8354 MEMB     61       DOPC     H13R     HAL2     0.900000E-01   1.00800           0
      8355 MEMB     61       DOPC     H13S     HAL2     0.900000E-01   1.00800           0
      8356 MEMB     61       DOPC     C214     CTL2    -0.180000       12.0110           0
      8357 MEMB     61       DOPC     H14R     HAL2     0.900000E-01   1.00800           0
      8358 MEMB     61       DOPC     H14S     HAL2     0.900000E-01   1.00800           0
      8359 MEMB     61       DOPC     C215     CTL2    -0.180000       12.0110           0
      8360 MEMB     61       DOPC     H15R     HAL2     0.900000E-01   1.00800           0
      8361 MEMB     61       DOPC     H15S     HAL2     0.900000E-01   1.00800           0
      8362 MEMB     61       DOPC     C216     CTL2    -0.180000       12.0110           0
      8363 MEMB     61       DOPC     H16R     HAL2     0.900000E-01   1.00800           0
      8364 MEMB     61       DOPC     H16S     HAL2     0.900000E-01   1.00800           0
      8365 MEMB     61       DOPC     C217     CTL2    -0.180000       12.0110           0
      8366 MEMB     61       DOPC     H17R     HAL2     0.900000E-01   1.00800           0
      8367 MEMB     61       DOPC     H17S     HAL2     0.900000E-01   1.00800           0
      8368 MEMB     61       DOPC     C218     CTL3    -0.270000       12.0110           0
      8369 MEMB     61       DOPC     H18R     HAL3     0.900000E-01   1.00800           0
      8370 MEMB     61       DOPC     H18S     HAL3     0.900000E-01   1.00800           0
      8371 MEMB     61       DOPC     H18T     HAL3     0.900000E-01   1.00800           0
      8372 MEMB     61       DOPC     C33      CTL2    -0.180000       12.0110           0
      8373 MEMB     61       DOPC     H3X      HAL2     0.900000E-01   1.00800           0
      8374 MEMB     61       DOPC     H3Y      HAL2     0.900000E-01   1.00800           0
      8375 MEMB     61       DOPC     C34      CTL2    -0.180000       12.0110           0
      8376 MEMB     61       DOPC     H4X      HAL2     0.900000E-01   1.00800           0
      8377 MEMB     61       DOPC     H4Y      HAL2     0.900000E-01   1.00800           0
      8378 MEMB     61       DOPC     C35      CTL2    -0.180000       12.0110           0
      8379 MEMB     61       DOPC     H5X      HAL2     0.900000E-01   1.00800           0
      8380 MEMB     61       DOPC     H5Y      HAL2     0.900000E-01   1.00800           0
      8381 MEMB     61       DOPC     C36      CTL2    -0.180000       12.0110           0
      8382 MEMB     61       DOPC     H6X      HAL2     0.900000E-01   1.00800           0
      8383 MEMB     61       DOPC     H6Y      HAL2     0.900000E-01   1.00800           0
      8384 MEMB     61       DOPC     C37      CTL2    -0.180000       12.0110           0
      8385 MEMB     61       DOPC     H7X      HAL2     0.900000E-01   1.00800           0
      8386 MEMB     61       DOPC     H7Y      HAL2     0.900000E-01   1.00800           0
      8387 MEMB     61       DOPC     C38      CTL2    -0.180000       12.0110           0
      8388 MEMB     61       DOPC     H8X      HAL2     0.900000E-01   1.00800           0
      8389 MEMB     61       DOPC     H8Y      HAL2     0.900000E-01   1.00800           0
      8390 MEMB     61       DOPC     C39      CEL1    -0.150000       12.0110           0
      8391 MEMB     61       DOPC     H9X      HEL1     0.150000       1.00800           0
      8392 MEMB     61       DOPC     C310     CEL1    -0.150000       12.0110           0
      8393 MEMB     61       DOPC     H10X     HEL1     0.150000       1.00800           0
      8394 MEMB     61       DOPC     C311     CTL2    -0.180000       12.0110           0
      8395 MEMB     61       DOPC     H11X     HAL2     0.900000E-01   1.00800           0
      8396 MEMB     61       DOPC     H11Y     HAL2     0.900000E-01   1.00800           0
      8397 MEMB     61       DOPC     C312     CTL2    -0.180000       12.0110           0
      8398 MEMB     61       DOPC     H12X     HAL2     0.900000E-01   1.00800           0
      8399 MEMB     61       DOPC     H12Y     HAL2     0.900000E-01   1.00800           0
      8400 MEMB     61       DOPC     C313     CTL2    -0.180000       12.0110           0
      8401 MEMB     61       DOPC     H13X     HAL2     0.900000E-01   1.00800           0
      8402 MEMB     61       DOPC     H13Y     HAL2     0.900000E-01   1.00800           0
      8403 MEMB     61       DOPC     C314     CTL2    -0.180000       12.0110           0
      8404 MEMB     61       DOPC     H14X     HAL2     0.900000E-01   1.00800           0
      8405 MEMB     61       DOPC     H14Y     HAL2     0.900000E-01   1.00800           0
      8406 MEMB     61       DOPC     C315     CTL2    -0.180000       12.0110           0
      8407 MEMB     61       DOPC     H15X     HAL2     0.900000E-01   1.00800           0
      8408 MEMB     61       DOPC     H15Y     HAL2     0.900000E-01   1.00800           0
      8409 MEMB     61       DOPC     C316     CTL2    -0.180000       12.0110           0
      8410 MEMB     61       DOPC     H16X     HAL2     0.900000E-01   1.00800           0
      8411 MEMB     61       DOPC     H16Y     HAL2     0.900000E-01   1.00800           0
      8412 MEMB     61       DOPC     C317     CTL2    -0.180000       12.0110           0
      8413 MEMB     61       DOPC     H17X     HAL2     0.900000E-01   1.00800           0
      8414 MEMB     61       DOPC     H17Y     HAL2     0.900000E-01   1.00800           0
      8415 MEMB     61       DOPC     C318     CTL3    -0.270000       12.0110           0
      8416 MEMB     61       DOPC     H18X     HAL3     0.900000E-01   1.00800           0
      8417 MEMB     61       DOPC     H18Y     HAL3     0.900000E-01   1.00800           0
      8418 MEMB     61       DOPC     H18Z     HAL3     0.900000E-01   1.00800           0
      8419 MEMB     62       DOPC     N        NTL     -0.600000       14.0070           0
      8420 MEMB     62       DOPC     C12      CTL2    -0.100000       12.0110           0
      8421 MEMB     62       DOPC     H12A     HL       0.250000       1.00800           0
      8422 MEMB     62       DOPC     H12B     HL       0.250000       1.00800           0
      8423 MEMB     62       DOPC     C13      CTL5    -0.350000       12.0110           0
      8424 MEMB     62       DOPC     H13A     HL       0.250000       1.00800           0
      8425 MEMB     62       DOPC     H13B     HL       0.250000       1.00800           0
      8426 MEMB     62       DOPC     H13C     HL       0.250000       1.00800           0
      8427 MEMB     62       DOPC     C14      CTL5    -0.350000       12.0110           0
      8428 MEMB     62       DOPC     H14A     HL       0.250000       1.00800           0
      8429 MEMB     62       DOPC     H14B     HL       0.250000       1.00800           0
      8430 MEMB     62       DOPC     H14C     HL       0.250000       1.00800           0
      8431 MEMB     62       DOPC     C15      CTL5    -0.350000       12.0110           0
      8432 MEMB     62       DOPC     H15A     HL       0.250000       1.00800           0
      8433 MEMB     62       DOPC     H15B     HL       0.250000       1.00800           0
      8434 MEMB     62       DOPC     H15C     HL       0.250000       1.00800           0
      8435 MEMB     62       DOPC     C11      CTL2    -0.800000E-01   12.0110           0
      8436 MEMB     62       DOPC     H11A     HAL2     0.900000E-01   1.00800           0
      8437 MEMB     62       DOPC     H11B     HAL2     0.900000E-01   1.00800           0
      8438 MEMB     62       DOPC     P        PL        1.50000       30.9740           0
      8439 MEMB     62       DOPC     O13      O2L     -0.780000       15.9994           0
      8440 MEMB     62       DOPC     O14      O2L     -0.780000       15.9994           0
      8441 MEMB     62       DOPC     O12      OSLP    -0.570000       15.9994           0
      8442 MEMB     62       DOPC     O11      OSLP    -0.570000       15.9994           0
      8443 MEMB     62       DOPC     C1       CTL2    -0.800000E-01   12.0110           0
      8444 MEMB     62       DOPC     HA       HAL2     0.900000E-01   1.00800           0
      8445 MEMB     62       DOPC     HB       HAL2     0.900000E-01   1.00800           0
      8446 MEMB     62       DOPC     C2       CTL1     0.170000       12.0110           0
      8447 MEMB     62       DOPC     HS       HAL1     0.900000E-01   1.00800           0
      8448 MEMB     62       DOPC     O21      OSL     -0.490000       15.9994           0
      8449 MEMB     62       DOPC     C21      CL       0.900000       12.0110           0
      8450 MEMB     62       DOPC     O22      OBL     -0.630000       15.9994           0
      8451 MEMB     62       DOPC     C22      CTL2    -0.220000       12.0110           0
      8452 MEMB     62       DOPC     H2R      HAL2     0.900000E-01   1.00800           0
      8453 MEMB     62       DOPC     H2S      HAL2     0.900000E-01   1.00800           0
      8454 MEMB     62       DOPC     C3       CTL2     0.800000E-01   12.0110           0
      8455 MEMB     62       DOPC     HX       HAL2     0.900000E-01   1.00800           0
      8456 MEMB     62       DOPC     HY       HAL2     0.900000E-01   1.00800           0
      8457 MEMB     62       DOPC     O31      OSL     -0.490000       15.9994           0
      8458 MEMB     62       DOPC     C31      CL       0.900000       12.0110           0
      8459 MEMB     62       DOPC     O32      OBL     -0.630000       15.9994           0
      8460 MEMB     62       DOPC     C32      CTL2    -0.220000       12.0110           0
      8461 MEMB     62       DOPC     H2X      HAL2     0.900000E-01   1.00800           0
      8462 MEMB     62       DOPC     H2Y      HAL2     0.900000E-01   1.00800           0
      8463 MEMB     62       DOPC     C23      CTL2    -0.180000       12.0110           0
      8464 MEMB     62       DOPC     H3R      HAL2     0.900000E-01   1.00800           0
      8465 MEMB     62       DOPC     H3S      HAL2     0.900000E-01   1.00800           0
      8466 MEMB     62       DOPC     C24      CTL2    -0.180000       12.0110           0
      8467 MEMB     62       DOPC     H4R      HAL2     0.900000E-01   1.00800           0
      8468 MEMB     62       DOPC     H4S      HAL2     0.900000E-01   1.00800           0
      8469 MEMB     62       DOPC     C25      CTL2    -0.180000       12.0110           0
      8470 MEMB     62       DOPC     H5R      HAL2     0.900000E-01   1.00800           0
      8471 MEMB     62       DOPC     H5S      HAL2     0.900000E-01   1.00800           0
      8472 MEMB     62       DOPC     C26      CTL2    -0.180000       12.0110           0
      8473 MEMB     62       DOPC     H6R      HAL2     0.900000E-01   1.00800           0
      8474 MEMB     62       DOPC     H6S      HAL2     0.900000E-01   1.00800           0
      8475 MEMB     62       DOPC     C27      CTL2    -0.180000       12.0110           0
      8476 MEMB     62       DOPC     H7R      HAL2     0.900000E-01   1.00800           0
      8477 MEMB     62       DOPC     H7S      HAL2     0.900000E-01   1.00800           0
      8478 MEMB     62       DOPC     C28      CTL2    -0.180000       12.0110           0
      8479 MEMB     62       DOPC     H8R      HAL2     0.900000E-01   1.00800           0
      8480 MEMB     62       DOPC     H8S      HAL2     0.900000E-01   1.00800           0
      8481 MEMB     62       DOPC     C29      CEL1    -0.150000       12.0110           0
      8482 MEMB     62       DOPC     H9R      HEL1     0.150000       1.00800           0
      8483 MEMB     62       DOPC     C210     CEL1    -0.150000       12.0110           0
      8484 MEMB     62       DOPC     H10R     HEL1     0.150000       1.00800           0
      8485 MEMB     62       DOPC     C211     CTL2    -0.180000       12.0110           0
      8486 MEMB     62       DOPC     H11R     HAL2     0.900000E-01   1.00800           0
      8487 MEMB     62       DOPC     H11S     HAL2     0.900000E-01   1.00800           0
      8488 MEMB     62       DOPC     C212     CTL2    -0.180000       12.0110           0
      8489 MEMB     62       DOPC     H12R     HAL2     0.900000E-01   1.00800           0
      8490 MEMB     62       DOPC     H12S     HAL2     0.900000E-01   1.00800           0
      8491 MEMB     62       DOPC     C213     CTL2    -0.180000       12.0110           0
      8492 MEMB     62       DOPC     H13R     HAL2     0.900000E-01   1.00800           0
      8493 MEMB     62       DOPC     H13S     HAL2     0.900000E-01   1.00800           0
      8494 MEMB     62       DOPC     C214     CTL2    -0.180000       12.0110           0
      8495 MEMB     62       DOPC     H14R     HAL2     0.900000E-01   1.00800           0
      8496 MEMB     62       DOPC     H14S     HAL2     0.900000E-01   1.00800           0
      8497 MEMB     62       DOPC     C215     CTL2    -0.180000       12.0110           0
      8498 MEMB     62       DOPC     H15R     HAL2     0.900000E-01   1.00800           0
      8499 MEMB     62       DOPC     H15S     HAL2     0.900000E-01   1.00800           0
      8500 MEMB     62       DOPC     C216     CTL2    -0.180000       12.0110           0
      8501 MEMB     62       DOPC     H16R     HAL2     0.900000E-01   1.00800           0
      8502 MEMB     62       DOPC     H16S     HAL2     0.900000E-01   1.00800           0
      8503 MEMB     62       DOPC     C217     CTL2    -0.180000       12.0110           0
      8504 MEMB     62       DOPC     H17R     HAL2     0.900000E-01   1.00800           0
      8505 MEMB     62       DOPC     H17S     HAL2     0.900000E-01   1.00800           0
      8506 MEMB     62       DOPC     C218     CTL3    -0.270000       12.0110           0
      8507 MEMB     62       DOPC     H18R     HAL3     0.900000E-01   1.00800           0
      8508 MEMB     62       DOPC     H18S     HAL3     0.900000E-01   1.00800           0
      8509 MEMB     62       DOPC     H18T     HAL3     0.900000E-01   1.00800           0
      8510 MEMB     62       DOPC     C33      CTL2    -0.180000       12.0110           0
      8511 MEMB     62       DOPC     H3X      HAL2     0.900000E-01   1.00800           0
      8512 MEMB     62       DOPC     H3Y      HAL2     0.900000E-01   1.00800           0
      8513 MEMB     62       DOPC     C34      CTL2    -0.180000       12.0110           0
      8514 MEMB     62       DOPC     H4X      HAL2     0.900000E-01   1.00800           0
      8515 MEMB     62       DOPC     H4Y      HAL2     0.900000E-01   1.00800           0
      8516 MEMB     62       DOPC     C35      CTL2    -0.180000       12.0110           0
      8517 MEMB     62       DOPC     H5X      HAL2     0.900000E-01   1.00800           0
      8518 MEMB     62       DOPC     H5Y      HAL2     0.900000E-01   1.00800           0
      8519 MEMB     62       DOPC     C36      CTL2    -0.180000       12.0110           0
      8520 MEMB     62       DOPC     H6X      HAL2     0.900000E-01   1.00800           0
      8521 MEMB     62       DOPC     H6Y      HAL2     0.900000E-01   1.00800           0
      8522 MEMB     62       DOPC     C37      CTL2    -0.180000       12.0110           0
      8523 MEMB     62       DOPC     H7X      HAL2     0.900000E-01   1.00800           0
      8524 MEMB     62       DOPC     H7Y      HAL2     0.900000E-01   1.00800           0
      8525 MEMB     62       DOPC     C38      CTL2    -0.180000       12.0110           0
      8526 MEMB     62       DOPC     H8X      HAL2     0.900000E-01   1.00800           0
      8527 MEMB     62       DOPC     H8Y      HAL2     0.900000E-01   1.00800           0
      8528 MEMB     62       DOPC     C39      CEL1    -0.150000       12.0110           0
      8529 MEMB     62       DOPC     H9X      HEL1     0.150000       1.00800           0
      8530 MEMB     62       DOPC     C310     CEL1    -0.150000       12.0110           0
      8531 MEMB     62       DOPC     H10X     HEL1     0.150000       1.00800           0
      8532 MEMB     62       DOPC     C311     CTL2    -0.180000       12.0110           0
      8533 MEMB     62       DOPC     H11X     HAL2     0.900000E-01   1.00800           0
      8534 MEMB     62       DOPC     H11Y     HAL2     0.900000E-01   1.00800           0
      8535 MEMB     62       DOPC     C312     CTL2    -0.180000       12.0110           0
      8536 MEMB     62       DOPC     H12X     HAL2     0.900000E-01   1.00800           0
      8537 MEMB     62       DOPC     H12Y     HAL2     0.900000E-01   1.00800           0
      8538 MEMB     62       DOPC     C313     CTL2    -0.180000       12.0110           0
      8539 MEMB     62       DOPC     H13X     HAL2     0.900000E-01   1.00800           0
      8540 MEMB     62       DOPC     H13Y     HAL2     0.900000E-01   1.00800           0
      8541 MEMB     62       DOPC     C314     CTL2    -0.180000       12.0110           0
      8542 MEMB     62       DOPC     H14X     HAL2     0.900000E-01   1.00800           0
      8543 MEMB     62       DOPC     H14Y     HAL2     0.900000E-01   1.00800           0
      8544 MEMB     62       DOPC     C315     CTL2    -0.180000       12.0110           0
      8545 MEMB     62       DOPC     H15X     HAL2     0.900000E-01   1.00800           0
      8546 MEMB     62       DOPC     H15Y     HAL2     0.900000E-01   1.00800           0
      8547 MEMB     62       DOPC     C316     CTL2    -0.180000       12.0110           0
      8548 MEMB     62       DOPC     H16X     HAL2     0.900000E-01   1.00800           0
      8549 MEMB     62       DOPC     H16Y     HAL2     0.900000E-01   1.00800           0
      8550 MEMB     62       DOPC     C317     CTL2    -0.180000       12.0110           0
      8551 MEMB     62       DOPC     H17X     HAL2     0.900000E-01   1.00800           0
      8552 MEMB     62       DOPC     H17Y     HAL2     0.900000E-01   1.00800           0
      8553 MEMB     62       DOPC     C318     CTL3    -0.270000       12.0110           0
      8554 MEMB     62       DOPC     H18X     HAL3     0.900000E-01   1.00800           0
      8555 MEMB     62       DOPC     H18Y     HAL3     0.900000E-01   1.00800           0
      8556 MEMB     62       DOPC     H18Z     HAL3     0.900000E-01   1.00800           0
      8557 MEMB     63       DOPC     N        NTL     -0.600000       14.0070           0
      8558 MEMB     63       DOPC     C12      CTL2    -0.100000       12.0110           0
      8559 MEMB     63       DOPC     H12A     HL       0.250000       1.00800           0
      8560 MEMB     63       DOPC     H12B     HL       0.250000       1.00800           0
      8561 MEMB     63       DOPC     C13      CTL5    -0.350000       12.0110           0
      8562 MEMB     63       DOPC     H13A     HL       0.250000       1.00800           0
      8563 MEMB     63       DOPC     H13B     HL       0.250000       1.00800           0
      8564 MEMB     63       DOPC     H13C     HL       0.250000       1.00800           0
      8565 MEMB     63       DOPC     C14      CTL5    -0.350000       12.0110           0
      8566 MEMB     63       DOPC     H14A     HL       0.250000       1.00800           0
      8567 MEMB     63       DOPC     H14B     HL       0.250000       1.00800           0
      8568 MEMB     63       DOPC     H14C     HL       0.250000       1.00800           0
      8569 MEMB     63       DOPC     C15      CTL5    -0.350000       12.0110           0
      8570 MEMB     63       DOPC     H15A     HL       0.250000       1.00800           0
      8571 MEMB     63       DOPC     H15B     HL       0.250000       1.00800           0
      8572 MEMB     63       DOPC     H15C     HL       0.250000       1.00800           0
      8573 MEMB     63       DOPC     C11      CTL2    -0.800000E-01   12.0110           0
      8574 MEMB     63       DOPC     H11A     HAL2     0.900000E-01   1.00800           0
      8575 MEMB     63       DOPC     H11B     HAL2     0.900000E-01   1.00800           0
      8576 MEMB     63       DOPC     P        PL        1.50000       30.9740           0
      8577 MEMB     63       DOPC     O13      O2L     -0.780000       15.9994           0
      8578 MEMB     63       DOPC     O14      O2L     -0.780000       15.9994           0
      8579 MEMB     63       DOPC     O12      OSLP    -0.570000       15.9994           0
      8580 MEMB     63       DOPC     O11      OSLP    -0.570000       15.9994           0
      8581 MEMB     63       DOPC     C1       CTL2    -0.800000E-01   12.0110           0
      8582 MEMB     63       DOPC     HA       HAL2     0.900000E-01   1.00800           0
      8583 MEMB     63       DOPC     HB       HAL2     0.900000E-01   1.00800           0
      8584 MEMB     63       DOPC     C2       CTL1     0.170000       12.0110           0
      8585 MEMB     63       DOPC     HS       HAL1     0.900000E-01   1.00800           0
      8586 MEMB     63       DOPC     O21      OSL     -0.490000       15.9994           0
      8587 MEMB     63       DOPC     C21      CL       0.900000       12.0110           0
      8588 MEMB     63       DOPC     O22      OBL     -0.630000       15.9994           0
      8589 MEMB     63       DOPC     C22      CTL2    -0.220000       12.0110           0
      8590 MEMB     63       DOPC     H2R      HAL2     0.900000E-01   1.00800           0
      8591 MEMB     63       DOPC     H2S      HAL2     0.900000E-01   1.00800           0
      8592 MEMB     63       DOPC     C3       CTL2     0.800000E-01   12.0110           0
      8593 MEMB     63       DOPC     HX       HAL2     0.900000E-01   1.00800           0
      8594 MEMB     63       DOPC     HY       HAL2     0.900000E-01   1.00800           0
      8595 MEMB     63       DOPC     O31      OSL     -0.490000       15.9994           0
      8596 MEMB     63       DOPC     C31      CL       0.900000       12.0110           0
      8597 MEMB     63       DOPC     O32      OBL     -0.630000       15.9994           0
      8598 MEMB     63       DOPC     C32      CTL2    -0.220000       12.0110           0
      8599 MEMB     63       DOPC     H2X      HAL2     0.900000E-01   1.00800           0
      8600 MEMB     63       DOPC     H2Y      HAL2     0.900000E-01   1.00800           0
      8601 MEMB     63       DOPC     C23      CTL2    -0.180000       12.0110           0
      8602 MEMB     63       DOPC     H3R      HAL2     0.900000E-01   1.00800           0
      8603 MEMB     63       DOPC     H3S      HAL2     0.900000E-01   1.00800           0
      8604 MEMB     63       DOPC     C24      CTL2    -0.180000       12.0110           0
      8605 MEMB     63       DOPC     H4R      HAL2     0.900000E-01   1.00800           0
      8606 MEMB     63       DOPC     H4S      HAL2     0.900000E-01   1.00800           0
      8607 MEMB     63       DOPC     C25      CTL2    -0.180000       12.0110           0
      8608 MEMB     63       DOPC     H5R      HAL2     0.900000E-01   1.00800           0
      8609 MEMB     63       DOPC     H5S      HAL2     0.900000E-01   1.00800           0
      8610 MEMB     63       DOPC     C26      CTL2    -0.180000       12.0110           0
      8611 MEMB     63       DOPC     H6R      HAL2     0.900000E-01   1.00800           0
      8612 MEMB     63       DOPC     H6S      HAL2     0.900000E-01   1.00800           0
      8613 MEMB     63       DOPC     C27      CTL2    -0.180000       12.0110           0
      8614 MEMB     63       DOPC     H7R      HAL2     0.900000E-01   1.00800           0
      8615 MEMB     63       DOPC     H7S      HAL2     0.900000E-01   1.00800           0
      8616 MEMB     63       DOPC     C28      CTL2    -0.180000       12.0110           0
      8617 MEMB     63       DOPC     H8R      HAL2     0.900000E-01   1.00800           0
      8618 MEMB     63       DOPC     H8S      HAL2     0.900000E-01   1.00800           0
      8619 MEMB     63       DOPC     C29      CEL1    -0.150000       12.0110           0
      8620 MEMB     63       DOPC     H9R      HEL1     0.150000       1.00800           0
      8621 MEMB     63       DOPC     C210     CEL1    -0.150000       12.0110           0
      8622 MEMB     63       DOPC     H10R     HEL1     0.150000       1.00800           0
      8623 MEMB     63       DOPC     C211     CTL2    -0.180000       12.0110           0
      8624 MEMB     63       DOPC     H11R     HAL2     0.900000E-01   1.00800           0
      8625 MEMB     63       DOPC     H11S     HAL2     0.900000E-01   1.00800           0
      8626 MEMB     63       DOPC     C212     CTL2    -0.180000       12.0110           0
      8627 MEMB     63       DOPC     H12R     HAL2     0.900000E-01   1.00800           0
      8628 MEMB     63       DOPC     H12S     HAL2     0.900000E-01   1.00800           0
      8629 MEMB     63       DOPC     C213     CTL2    -0.180000       12.0110           0
      8630 MEMB     63       DOPC     H13R     HAL2     0.900000E-01   1.00800           0
      8631 MEMB     63       DOPC     H13S     HAL2     0.900000E-01   1.00800           0
      8632 MEMB     63       DOPC     C214     CTL2    -0.180000       12.0110           0
      8633 MEMB     63       DOPC     H14R     HAL2     0.900000E-01   1.00800           0
      8634 MEMB     63       DOPC     H14S     HAL2     0.900000E-01   1.00800           0
      8635 MEMB     63       DOPC     C215     CTL2    -0.180000       12.0110           0
      8636 MEMB     63       DOPC     H15R     HAL2     0.900000E-01   1.00800           0
      8637 MEMB     63       DOPC     H15S     HAL2     0.900000E-01   1.00800           0
      8638 MEMB     63       DOPC     C216     CTL2    -0.180000       12.0110           0
      8639 MEMB     63       DOPC     H16R     HAL2     0.900000E-01   1.00800           0
      8640 MEMB     63       DOPC     H16S     HAL2     0.900000E-01   1.00800           0
      8641 MEMB     63       DOPC     C217     CTL2    -0.180000       12.0110           0
      8642 MEMB     63       DOPC     H17R     HAL2     0.900000E-01   1.00800           0
      8643 MEMB     63       DOPC     H17S     HAL2     0.900000E-01   1.00800           0
      8644 MEMB     63       DOPC     C218     CTL3    -0.270000       12.0110           0
      8645 MEMB     63       DOPC     H18R     HAL3     0.900000E-01   1.00800           0
      8646 MEMB     63       DOPC     H18S     HAL3     0.900000E-01   1.00800           0
      8647 MEMB     63       DOPC     H18T     HAL3     0.900000E-01   1.00800           0
      8648 MEMB     63       DOPC     C33      CTL2    -0.180000       12.0110           0
      8649 MEMB     63       DOPC     H3X      HAL2     0.900000E-01   1.00800           0
      8650 MEMB     63       DOPC     H3Y      HAL2     0.900000E-01   1.00800           0
      8651 MEMB     63       DOPC     C34      CTL2    -0.180000       12.0110           0
      8652 MEMB     63       DOPC     H4X      HAL2     0.900000E-01   1.00800           0
      8653 MEMB     63       DOPC     H4Y      HAL2     0.900000E-01   1.00800           0
      8654 MEMB     63       DOPC     C35      CTL2    -0.180000       12.0110           0
      8655 MEMB     63       DOPC     H5X      HAL2     0.900000E-01   1.00800           0
      8656 MEMB     63       DOPC     H5Y      HAL2     0.900000E-01   1.00800           0
      8657 MEMB     63       DOPC     C36      CTL2    -0.180000       12.0110           0
      8658 MEMB     63       DOPC     H6X      HAL2     0.900000E-01   1.00800           0
      8659 MEMB     63       DOPC     H6Y      HAL2     0.900000E-01   1.00800           0
      8660 MEMB     63       DOPC     C37      CTL2    -0.180000       12.0110           0
      8661 MEMB     63       DOPC     H7X      HAL2     0.900000E-01   1.00800           0
      8662 MEMB     63       DOPC     H7Y      HAL2     0.900000E-01   1.00800           0
      8663 MEMB     63       DOPC     C38      CTL2    -0.180000       12.0110           0
      8664 MEMB     63       DOPC     H8X      HAL2     0.900000E-01   1.00800           0
      8665 MEMB     63       DOPC     H8Y      HAL2     0.900000E-01   1.00800           0
      8666 MEMB     63       DOPC     C39      CEL1    -0.150000       12.0110           0
      8667 MEMB     63       DOPC     H9X      HEL1     0.150000       1.00800           0
      8668 MEMB     63       DOPC     C310     CEL1    -0.150000       12.0110           0
      8669 MEMB     63       DOPC     H10X     HEL1     0.150000       1.00800           0
      8670 MEMB     63       DOPC     C311     CTL2    -0.180000       12.0110           0
      8671 MEMB     63       DOPC     H11X     HAL2     0.900000E-01   1.00800           0
      8672 MEMB     63       DOPC     H11Y     HAL2     0.900000E-01   1.00800           0
      8673 MEMB     63       DOPC     C312     CTL2    -0.180000       12.0110           0
      8674 MEMB     63       DOPC     H12X     HAL2     0.900000E-01   1.00800           0
      8675 MEMB     63       DOPC     H12Y     HAL2     0.900000E-01   1.00800           0
      8676 MEMB     63       DOPC     C313     CTL2    -0.180000       12.0110           0
      8677 MEMB     63       DOPC     H13X     HAL2     0.900000E-01   1.00800           0
      8678 MEMB     63       DOPC     H13Y     HAL2     0.900000E-01   1.00800           0
      8679 MEMB     63       DOPC     C314     CTL2    -0.180000       12.0110           0
      8680 MEMB     63       DOPC     H14X     HAL2     0.900000E-01   1.00800           0
      8681 MEMB     63       DOPC     H14Y     HAL2     0.900000E-01   1.00800           0
      8682 MEMB     63       DOPC     C315     CTL2    -0.180000       12.0110           0
      8683 MEMB     63       DOPC     H15X     HAL2     0.900000E-01   1.00800           0
      8684 MEMB     63       DOPC     H15Y     HAL2     0.900000E-01   1.00800           0
      8685 MEMB     63       DOPC     C316     CTL2    -0.180000       12.0110           0
      8686 MEMB     63       DOPC     H16X     HAL2     0.900000E-01   1.00800           0
      8687 MEMB     63       DOPC     H16Y     HAL2     0.900000E-01   1.00800           0
      8688 MEMB     63       DOPC     C317     CTL2    -0.180000       12.0110           0
      8689 MEMB     63       DOPC     H17X     HAL2     0.900000E-01   1.00800           0
      8690 MEMB     63       DOPC     H17Y     HAL2     0.900000E-01   1.00800           0
      8691 MEMB     63       DOPC     C318     CTL3    -0.270000       12.0110           0
      8692 MEMB     63       DOPC     H18X     HAL3     0.900000E-01   1.00800           0
      8693 MEMB     63       DOPC     H18Y     HAL3     0.900000E-01   1.00800           0
      8694 MEMB     63       DOPC     H18Z     HAL3     0.900000E-01   1.00800           0
      8695 MEMB     64       DOPC     N        NTL     -0.600000       14.0070           0
      8696 MEMB     64       DOPC     C12      CTL2    -0.100000       12.0110           0
      8697 MEMB     64       DOPC     H12A     HL       0.250000       1.00800           0
      8698 MEMB     64       DOPC     H12B     HL       0.250000       1.00800           0
      8699 MEMB     64       DOPC     C13      CTL5    -0.350000       12.0110           0
      8700 MEMB     64       DOPC     H13A     HL       0.250000       1.00800           0
      8701 MEMB     64       DOPC     H13B     HL       0.250000       1.00800           0
      8702 MEMB     64       DOPC     H13C     HL       0.250000       1.00800           0
      8703 MEMB     64       DOPC     C14      CTL5    -0.350000       12.0110           0
      8704 MEMB     64       DOPC     H14A     HL       0.250000       1.00800           0
      8705 MEMB     64       DOPC     H14B     HL       0.250000       1.00800           0
      8706 MEMB     64       DOPC     H14C     HL       0.250000       1.00800           0
      8707 MEMB     64       DOPC     C15      CTL5    -0.350000       12.0110           0
      8708 MEMB     64       DOPC     H15A     HL       0.250000       1.00800           0
      8709 MEMB     64       DOPC     H15B     HL       0.250000       1.00800           0
      8710 MEMB     64       DOPC     H15C     HL       0.250000       1.00800           0
      8711 MEMB     64       DOPC     C11      CTL2    -0.800000E-01   12.0110           0
      8712 MEMB     64       DOPC     H11A     HAL2     0.900000E-01   1.00800           0
      8713 MEMB     64       DOPC     H11B     HAL2     0.900000E-01   1.00800           0
      8714 MEMB     64       DOPC     P        PL        1.50000       30.9740           0
      8715 MEMB     64       DOPC     O13      O2L     -0.780000       15.9994           0
      8716 MEMB     64       DOPC     O14      O2L     -0.780000       15.9994           0
      8717 MEMB     64       DOPC     O12      OSLP    -0.570000       15.9994           0
      8718 MEMB     64       DOPC     O11      OSLP    -0.570000       15.9994           0
      8719 MEMB     64       DOPC     C1       CTL2    -0.800000E-01   12.0110           0
      8720 MEMB     64       DOPC     HA       HAL2     0.900000E-01   1.00800           0
      8721 MEMB     64       DOPC     HB       HAL2     0.900000E-01   1.00800           0
      8722 MEMB     64       DOPC     C2       CTL1     0.170000       12.0110           0
      8723 MEMB     64       DOPC     HS       HAL1     0.900000E-01   1.00800           0
      8724 MEMB     64       DOPC     O21      OSL     -0.490000       15.9994           0
      8725 MEMB     64       DOPC     C21      CL       0.900000       12.0110           0
      8726 MEMB     64       DOPC     O22      OBL     -0.630000       15.9994           0
      8727 MEMB     64       DOPC     C22      CTL2    -0.220000       12.0110           0
      8728 MEMB     64       DOPC     H2R      HAL2     0.900000E-01   1.00800           0
      8729 MEMB     64       DOPC     H2S      HAL2     0.900000E-01   1.00800           0
      8730 MEMB     64       DOPC     C3       CTL2     0.800000E-01   12.0110           0
      8731 MEMB     64       DOPC     HX       HAL2     0.900000E-01   1.00800           0
      8732 MEMB     64       DOPC     HY       HAL2     0.900000E-01   1.00800           0
      8733 MEMB     64       DOPC     O31      OSL     -0.490000       15.9994           0
      8734 MEMB     64       DOPC     C31      CL       0.900000       12.0110           0
      8735 MEMB     64       DOPC     O32      OBL     -0.630000       15.9994           0
      8736 MEMB     64       DOPC     C32      CTL2    -0.220000       12.0110           0
      8737 MEMB     64       DOPC     H2X      HAL2     0.900000E-01   1.00800           0
      8738 MEMB     64       DOPC     H2Y      HAL2     0.900000E-01   1.00800           0
      8739 MEMB     64       DOPC     C23      CTL2    -0.180000       12.0110           0
      8740 MEMB     64       DOPC     H3R      HAL2     0.900000E-01   1.00800           0
      8741 MEMB     64       DOPC     H3S      HAL2     0.900000E-01   1.00800           0
      8742 MEMB     64       DOPC     C24      CTL2    -0.180000       12.0110           0
      8743 MEMB     64       DOPC     H4R      HAL2     0.900000E-01   1.00800           0
      8744 MEMB     64       DOPC     H4S      HAL2     0.900000E-01   1.00800           0
      8745 MEMB     64       DOPC     C25      CTL2    -0.180000       12.0110           0
      8746 MEMB     64       DOPC     H5R      HAL2     0.900000E-01   1.00800           0
      8747 MEMB     64       DOPC     H5S      HAL2     0.900000E-01   1.00800           0
      8748 MEMB     64       DOPC     C26      CTL2    -0.180000       12.0110           0
      8749 MEMB     64       DOPC     H6R      HAL2     0.900000E-01   1.00800           0
      8750 MEMB     64       DOPC     H6S      HAL2     0.900000E-01   1.00800           0
      8751 MEMB     64       DOPC     C27      CTL2    -0.180000       12.0110           0
      8752 MEMB     64       DOPC     H7R      HAL2     0.900000E-01   1.00800           0
      8753 MEMB     64       DOPC     H7S      HAL2     0.900000E-01   1.00800           0
      8754 MEMB     64       DOPC     C28      CTL2    -0.180000       12.0110           0
      8755 MEMB     64       DOPC     H8R      HAL2     0.900000E-01   1.00800           0
      8756 MEMB     64       DOPC     H8S      HAL2     0.900000E-01   1.00800           0
      8757 MEMB     64       DOPC     C29      CEL1    -0.150000       12.0110           0
      8758 MEMB     64       DOPC     H9R      HEL1     0.150000       1.00800           0
      8759 MEMB     64       DOPC     C210     CEL1    -0.150000       12.0110           0
      8760 MEMB     64       DOPC     H10R     HEL1     0.150000       1.00800           0
      8761 MEMB     64       DOPC     C211     CTL2    -0.180000       12.0110           0
      8762 MEMB     64       DOPC     H11R     HAL2     0.900000E-01   1.00800           0
      8763 MEMB     64       DOPC     H11S     HAL2     0.900000E-01   1.00800           0
      8764 MEMB     64       DOPC     C212     CTL2    -0.180000       12.0110           0
      8765 MEMB     64       DOPC     H12R     HAL2     0.900000E-01   1.00800           0
      8766 MEMB     64       DOPC     H12S     HAL2     0.900000E-01   1.00800           0
      8767 MEMB     64       DOPC     C213     CTL2    -0.180000       12.0110           0
      8768 MEMB     64       DOPC     H13R     HAL2     0.900000E-01   1.00800           0
      8769 MEMB     64       DOPC     H13S     HAL2     0.900000E-01   1.00800           0
      8770 MEMB     64       DOPC     C214     CTL2    -0.180000       12.0110           0
      8771 MEMB     64       DOPC     H14R     HAL2     0.900000E-01   1.00800           0
      8772 MEMB     64       DOPC     H14S     HAL2     0.900000E-01   1.00800           0
      8773 MEMB     64       DOPC     C215     CTL2    -0.180000       12.0110           0
      8774 MEMB     64       DOPC     H15R     HAL2     0.900000E-01   1.00800           0
      8775 MEMB     64       DOPC     H15S     HAL2     0.900000E-01   1.00800           0
      8776 MEMB     64       DOPC     C216     CTL2    -0.180000       12.0110           0
      8777 MEMB     64       DOPC     H16R     HAL2     0.900000E-01   1.00800           0
      8778 MEMB     64       DOPC     H16S     HAL2     0.900000E-01   1.00800           0
      8779 MEMB     64       DOPC     C217     CTL2    -0.180000       12.0110           0
      8780 MEMB     64       DOPC     H17R     HAL2     0.900000E-01   1.00800           0
      8781 MEMB     64       DOPC     H17S     HAL2     0.900000E-01   1.00800           0
      8782 MEMB     64       DOPC     C218     CTL3    -0.270000       12.0110           0
      8783 MEMB     64       DOPC     H18R     HAL3     0.900000E-01   1.00800           0
      8784 MEMB     64       DOPC     H18S     HAL3     0.900000E-01   1.00800           0
      8785 MEMB     64       DOPC     H18T     HAL3     0.900000E-01   1.00800           0
      8786 MEMB     64       DOPC     C33      CTL2    -0.180000       12.0110           0
      8787 MEMB     64       DOPC     H3X      HAL2     0.900000E-01   1.00800           0
      8788 MEMB     64       DOPC     H3Y      HAL2     0.900000E-01   1.00800           0
      8789 MEMB     64       DOPC     C34      CTL2    -0.180000       12.0110           0
      8790 MEMB     64       DOPC     H4X      HAL2     0.900000E-01   1.00800           0
      8791 MEMB     64       DOPC     H4Y      HAL2     0.900000E-01   1.00800           0
      8792 MEMB     64       DOPC     C35      CTL2    -0.180000       12.0110           0
      8793 MEMB     64       DOPC     H5X      HAL2     0.900000E-01   1.00800           0
      8794 MEMB     64       DOPC     H5Y      HAL2     0.900000E-01   1.00800           0
      8795 MEMB     64       DOPC     C36      CTL2    -0.180000       12.0110           0
      8796 MEMB     64       DOPC     H6X      HAL2     0.900000E-01   1.00800           0
      8797 MEMB     64       DOPC     H6Y      HAL2     0.900000E-01   1.00800           0
      8798 MEMB     64       DOPC     C37      CTL2    -0.180000       12.0110           0
      8799 MEMB     64       DOPC     H7X      HAL2     0.900000E-01   1.00800           0
      8800 MEMB     64       DOPC     H7Y      HAL2     0.900000E-01   1.00800           0
      8801 MEMB     64       DOPC     C38      CTL2    -0.180000       12.0110           0
      8802 MEMB     64       DOPC     H8X      HAL2     0.900000E-01   1.00800           0
      8803 MEMB     64       DOPC     H8Y      HAL2     0.900000E-01   1.00800           0
      8804 MEMB     64       DOPC     C39      CEL1    -0.150000       12.0110           0
      8805 MEMB     64       DOPC     H9X      HEL1     0.150000       1.00800           0
      8806 MEMB     64       DOPC     C310     CEL1    -0.150000       12.0110           0
      8807 MEMB     64       DOPC     H10X     HEL1     0.150000       1.00800           0
      8808 MEMB     64       DOPC     C311     CTL2    -0.180000       12.0110           0
      8809 MEMB     64       DOPC     H11X     HAL2     0.900000E-01   1.00800           0
      8810 MEMB     64       DOPC     H11Y     HAL2     0.900000E-01   1.00800           0
      8811 MEMB     64       DOPC     C312     CTL2    -0.180000       12.0110           0
      8812 MEMB     64       DOPC     H12X     HAL2     0.900000E-01   1.00800           0
      8813 MEMB     64       DOPC     H12Y     HAL2     0.900000E-01   1.00800           0
      8814 MEMB     64       DOPC     C313     CTL2    -0.180000       12.0110           0
      8815 MEMB     64       DOPC     H13X     HAL2     0.900000E-01   1.00800           0
      8816 MEMB     64       DOPC     H13Y     HAL2     0.900000E-01   1.00800           0
      8817 MEMB     64       DOPC     C314     CTL2    -0.180000       12.0110           0
      8818 MEMB     64       DOPC     H14X     HAL2     0.900000E-01   1.00800           0
      8819 MEMB     64       DOPC     H14Y     HAL2     0.900000E-01   1.00800           0
      8820 MEMB     64       DOPC     C315     CTL2    -0.180000       12.0110           0
      8821 MEMB     64       DOPC     H15X     HAL2     0.900000E-01   1.00800           0
      8822 MEMB     64       DOPC     H15Y     HAL2     0.900000E-01   1.00800           0
      8823 MEMB     64       DOPC     C316     CTL2    -0.180000       12.0110           0
      8824 MEMB     64       DOPC     H16X     HAL2     0.900000E-01   1.00800           0
      8825 MEMB     64       DOPC     H16Y     HAL2     0.900000E-01   1.00800           0
      8826 MEMB     64       DOPC     C317     CTL2    -0.180000       12.0110           0
      8827 MEMB     64       DOPC     H17X     HAL2     0.900000E-01   1.00800           0
      8828 MEMB     64       DOPC     H17Y     HAL2     0.900000E-01   1.00800           0
      8829 MEMB     64       DOPC     C318     CTL3    -0.270000       12.0110           0
      8830 MEMB     64       DOPC     H18X     HAL3     0.900000E-01   1.00800           0
      8831 MEMB     64       DOPC     H18Y     HAL3     0.900000E-01   1.00800           0
      8832 MEMB     64       DOPC     H18Z     HAL3     0.900000E-01   1.00800           0
      8833 MEMB     65       DOPC     N        NTL     -0.600000       14.0070           0
      8834 MEMB     65       DOPC     C12      CTL2    -0.100000       12.0110           0
      8835 MEMB     65       DOPC     H12A     HL       0.250000       1.00800           0
      8836 MEMB     65       DOPC     H12B     HL       0.250000       1.00800           0
      8837 MEMB     65       DOPC     C13      CTL5    -0.350000       12.0110           0
      8838 MEMB     65       DOPC     H13A     HL       0.250000       1.00800           0
      8839 MEMB     65       DOPC     H13B     HL       0.250000       1.00800           0
      8840 MEMB     65       DOPC     H13C     HL       0.250000       1.00800           0
      8841 MEMB     65       DOPC     C14      CTL5    -0.350000       12.0110           0
      8842 MEMB     65       DOPC     H14A     HL       0.250000       1.00800           0
      8843 MEMB     65       DOPC     H14B     HL       0.250000       1.00800           0
      8844 MEMB     65       DOPC     H14C     HL       0.250000       1.00800           0
      8845 MEMB     65       DOPC     C15      CTL5    -0.350000       12.0110           0
      8846 MEMB     65       DOPC     H15A     HL       0.250000       1.00800           0
      8847 MEMB     65       DOPC     H15B     HL       0.250000       1.00800           0
      8848 MEMB     65       DOPC     H15C     HL       0.250000       1.00800           0
      8849 MEMB     65       DOPC     C11      CTL2    -0.800000E-01   12.0110           0
      8850 MEMB     65       DOPC     H11A     HAL2     0.900000E-01   1.00800           0
      8851 MEMB     65       DOPC     H11B     HAL2     0.900000E-01   1.00800           0
      8852 MEMB     65       DOPC     P        PL        1.50000       30.9740           0
      8853 MEMB     65       DOPC     O13      O2L     -0.780000       15.9994           0
      8854 MEMB     65       DOPC     O14      O2L     -0.780000       15.9994           0
      8855 MEMB     65       DOPC     O12      OSLP    -0.570000       15.9994           0
      8856 MEMB     65       DOPC     O11      OSLP    -0.570000       15.9994           0
      8857 MEMB     65       DOPC     C1       CTL2    -0.800000E-01   12.0110           0
      8858 MEMB     65       DOPC     HA       HAL2     0.900000E-01   1.00800           0
      8859 MEMB     65       DOPC     HB       HAL2     0.900000E-01   1.00800           0
      8860 MEMB     65       DOPC     C2       CTL1     0.170000       12.0110           0
      8861 MEMB     65       DOPC     HS       HAL1     0.900000E-01   1.00800           0
      8862 MEMB     65       DOPC     O21      OSL     -0.490000       15.9994           0
      8863 MEMB     65       DOPC     C21      CL       0.900000       12.0110           0
      8864 MEMB     65       DOPC     O22      OBL     -0.630000       15.9994           0
      8865 MEMB     65       DOPC     C22      CTL2    -0.220000       12.0110           0
      8866 MEMB     65       DOPC     H2R      HAL2     0.900000E-01   1.00800           0
      8867 MEMB     65       DOPC     H2S      HAL2     0.900000E-01   1.00800           0
      8868 MEMB     65       DOPC     C3       CTL2     0.800000E-01   12.0110           0
      8869 MEMB     65       DOPC     HX       HAL2     0.900000E-01   1.00800           0
      8870 MEMB     65       DOPC     HY       HAL2     0.900000E-01   1.00800           0
      8871 MEMB     65       DOPC     O31      OSL     -0.490000       15.9994           0
      8872 MEMB     65       DOPC     C31      CL       0.900000       12.0110           0
      8873 MEMB     65       DOPC     O32      OBL     -0.630000       15.9994           0
      8874 MEMB     65       DOPC     C32      CTL2    -0.220000       12.0110           0
      8875 MEMB     65       DOPC     H2X      HAL2     0.900000E-01   1.00800           0
      8876 MEMB     65       DOPC     H2Y      HAL2     0.900000E-01   1.00800           0
      8877 MEMB     65       DOPC     C23      CTL2    -0.180000       12.0110           0
      8878 MEMB     65       DOPC     H3R      HAL2     0.900000E-01   1.00800           0
      8879 MEMB     65       DOPC     H3S      HAL2     0.900000E-01   1.00800           0
      8880 MEMB     65       DOPC     C24      CTL2    -0.180000       12.0110           0
      8881 MEMB     65       DOPC     H4R      HAL2     0.900000E-01   1.00800           0
      8882 MEMB     65       DOPC     H4S      HAL2     0.900000E-01   1.00800           0
      8883 MEMB     65       DOPC     C25      CTL2    -0.180000       12.0110           0
      8884 MEMB     65       DOPC     H5R      HAL2     0.900000E-01   1.00800           0
      8885 MEMB     65       DOPC     H5S      HAL2     0.900000E-01   1.00800           0
      8886 MEMB     65       DOPC     C26      CTL2    -0.180000       12.0110           0
      8887 MEMB     65       DOPC     H6R      HAL2     0.900000E-01   1.00800           0
      8888 MEMB     65       DOPC     H6S      HAL2     0.900000E-01   1.00800           0
      8889 MEMB     65       DOPC     C27      CTL2    -0.180000       12.0110           0
      8890 MEMB     65       DOPC     H7R      HAL2     0.900000E-01   1.00800           0
      8891 MEMB     65       DOPC     H7S      HAL2     0.900000E-01   1.00800           0
      8892 MEMB     65       DOPC     C28      CTL2    -0.180000       12.0110           0
      8893 MEMB     65       DOPC     H8R      HAL2     0.900000E-01   1.00800           0
      8894 MEMB     65       DOPC     H8S      HAL2     0.900000E-01   1.00800           0
      8895 MEMB     65       DOPC     C29      CEL1    -0.150000       12.0110           0
      8896 MEMB     65       DOPC     H9R      HEL1     0.150000       1.00800           0
      8897 MEMB     65       DOPC     C210     CEL1    -0.150000       12.0110           0
      8898 MEMB     65       DOPC     H10R     HEL1     0.150000       1.00800           0
      8899 MEMB     65       DOPC     C211     CTL2    -0.180000       12.0110           0
      8900 MEMB     65       DOPC     H11R     HAL2     0.900000E-01   1.00800           0
      8901 MEMB     65       DOPC     H11S     HAL2     0.900000E-01   1.00800           0
      8902 MEMB     65       DOPC     C212     CTL2    -0.180000       12.0110           0
      8903 MEMB     65       DOPC     H12R     HAL2     0.900000E-01   1.00800           0
      8904 MEMB     65       DOPC     H12S     HAL2     0.900000E-01   1.00800           0
      8905 MEMB     65       DOPC     C213     CTL2    -0.180000       12.0110           0
      8906 MEMB     65       DOPC     H13R     HAL2     0.900000E-01   1.00800           0
      8907 MEMB     65       DOPC     H13S     HAL2     0.900000E-01   1.00800           0
      8908 MEMB     65       DOPC     C214     CTL2    -0.180000       12.0110           0
      8909 MEMB     65       DOPC     H14R     HAL2     0.900000E-01   1.00800           0
      8910 MEMB     65       DOPC     H14S     HAL2     0.900000E-01   1.00800           0
      8911 MEMB     65       DOPC     C215     CTL2    -0.180000       12.0110           0
      8912 MEMB     65       DOPC     H15R     HAL2     0.900000E-01   1.00800           0
      8913 MEMB     65       DOPC     H15S     HAL2     0.900000E-01   1.00800           0
      8914 MEMB     65       DOPC     C216     CTL2    -0.180000       12.0110           0
      8915 MEMB     65       DOPC     H16R     HAL2     0.900000E-01   1.00800           0
      8916 MEMB     65       DOPC     H16S     HAL2     0.900000E-01   1.00800           0
      8917 MEMB     65       DOPC     C217     CTL2    -0.180000       12.0110           0
      8918 MEMB     65       DOPC     H17R     HAL2     0.900000E-01   1.00800           0
      8919 MEMB     65       DOPC     H17S     HAL2     0.900000E-01   1.00800           0
      8920 MEMB     65       DOPC     C218     CTL3    -0.270000       12.0110           0
      8921 MEMB     65       DOPC     H18R     HAL3     0.900000E-01   1.00800           0
      8922 MEMB     65       DOPC     H18S     HAL3     0.900000E-01   1.00800           0
      8923 MEMB     65       DOPC     H18T     HAL3     0.900000E-01   1.00800           0
      8924 MEMB     65       DOPC     C33      CTL2    -0.180000       12.0110           0
      8925 MEMB     65       DOPC     H3X      HAL2     0.900000E-01   1.00800           0
      8926 MEMB     65       DOPC     H3Y      HAL2     0.900000E-01   1.00800           0
      8927 MEMB     65       DOPC     C34      CTL2    -0.180000       12.0110           0
      8928 MEMB     65       DOPC     H4X      HAL2     0.900000E-01   1.00800           0
      8929 MEMB     65       DOPC     H4Y      HAL2     0.900000E-01   1.00800           0
      8930 MEMB     65       DOPC     C35      CTL2    -0.180000       12.0110           0
      8931 MEMB     65       DOPC     H5X      HAL2     0.900000E-01   1.00800           0
      8932 MEMB     65       DOPC     H5Y      HAL2     0.900000E-01   1.00800           0
      8933 MEMB     65       DOPC     C36      CTL2    -0.180000       12.0110           0
      8934 MEMB     65       DOPC     H6X      HAL2     0.900000E-01   1.00800           0
      8935 MEMB     65       DOPC     H6Y      HAL2     0.900000E-01   1.00800           0
      8936 MEMB     65       DOPC     C37      CTL2    -0.180000       12.0110           0
      8937 MEMB     65       DOPC     H7X      HAL2     0.900000E-01   1.00800           0
      8938 MEMB     65       DOPC     H7Y      HAL2     0.900000E-01   1.00800           0
      8939 MEMB     65       DOPC     C38      CTL2    -0.180000       12.0110           0
      8940 MEMB     65       DOPC     H8X      HAL2     0.900000E-01   1.00800           0
      8941 MEMB     65       DOPC     H8Y      HAL2     0.900000E-01   1.00800           0
      8942 MEMB     65       DOPC     C39      CEL1    -0.150000       12.0110           0
      8943 MEMB     65       DOPC     H9X      HEL1     0.150000       1.00800           0
      8944 MEMB     65       DOPC     C310     CEL1    -0.150000       12.0110           0
      8945 MEMB     65       DOPC     H10X     HEL1     0.150000       1.00800           0
      8946 MEMB     65       DOPC     C311     CTL2    -0.180000       12.0110           0
      8947 MEMB     65       DOPC     H11X     HAL2     0.900000E-01   1.00800           0
      8948 MEMB     65       DOPC     H11Y     HAL2     0.900000E-01   1.00800           0
      8949 MEMB     65       DOPC     C312     CTL2    -0.180000       12.0110           0
      8950 MEMB     65       DOPC     H12X     HAL2     0.900000E-01   1.00800           0
      8951 MEMB     65       DOPC     H12Y     HAL2     0.900000E-01   1.00800           0
      8952 MEMB     65       DOPC     C313     CTL2    -0.180000       12.0110           0
      8953 MEMB     65       DOPC     H13X     HAL2     0.900000E-01   1.00800           0
      8954 MEMB     65       DOPC     H13Y     HAL2     0.900000E-01   1.00800           0
      8955 MEMB     65       DOPC     C314     CTL2    -0.180000       12.0110           0
      8956 MEMB     65       DOPC     H14X     HAL2     0.900000E-01   1.00800           0
      8957 MEMB     65       DOPC     H14Y     HAL2     0.900000E-01   1.00800           0
      8958 MEMB     65       DOPC     C315     CTL2    -0.180000       12.0110           0
      8959 MEMB     65       DOPC     H15X     HAL2     0.900000E-01   1.00800           0
      8960 MEMB     65       DOPC     H15Y     HAL2     0.900000E-01   1.00800           0
      8961 MEMB     65       DOPC     C316     CTL2    -0.180000       12.0110           0
      8962 MEMB     65       DOPC     H16X     HAL2     0.900000E-01   1.00800           0
      8963 MEMB     65       DOPC     H16Y     HAL2     0.900000E-01   1.00800           0
      8964 MEMB     65       DOPC     C317     CTL2    -0.180000       12.0110           0
      8965 MEMB     65       DOPC     H17X     HAL2     0.900000E-01   1.00800           0
      8966 MEMB     65       DOPC     H17Y     HAL2     0.900000E-01   1.00800           0
      8967 MEMB     65       DOPC     C318     CTL3    -0.270000       12.0110           0
      8968 MEMB     65       DOPC     H18X     HAL3     0.900000E-01   1.00800           0
      8969 MEMB     65       DOPC     H18Y     HAL3     0.900000E-01   1.00800           0
      8970 MEMB     65       DOPC     H18Z     HAL3     0.900000E-01   1.00800           0
      8971 MEMB     66       DOPC     N        NTL     -0.600000       14.0070           0
      8972 MEMB     66       DOPC     C12      CTL2    -0.100000       12.0110           0
      8973 MEMB     66       DOPC     H12A     HL       0.250000       1.00800           0
      8974 MEMB     66       DOPC     H12B     HL       0.250000       1.00800           0
      8975 MEMB     66       DOPC     C13      CTL5    -0.350000       12.0110           0
      8976 MEMB     66       DOPC     H13A     HL       0.250000       1.00800           0
      8977 MEMB     66       DOPC     H13B     HL       0.250000       1.00800           0
      8978 MEMB     66       DOPC     H13C     HL       0.250000       1.00800           0
      8979 MEMB     66       DOPC     C14      CTL5    -0.350000       12.0110           0
      8980 MEMB     66       DOPC     H14A     HL       0.250000       1.00800           0
      8981 MEMB     66       DOPC     H14B     HL       0.250000       1.00800           0
      8982 MEMB     66       DOPC     H14C     HL       0.250000       1.00800           0
      8983 MEMB     66       DOPC     C15      CTL5    -0.350000       12.0110           0
      8984 MEMB     66       DOPC     H15A     HL       0.250000       1.00800           0
      8985 MEMB     66       DOPC     H15B     HL       0.250000       1.00800           0
      8986 MEMB     66       DOPC     H15C     HL       0.250000       1.00800           0
      8987 MEMB     66       DOPC     C11      CTL2    -0.800000E-01   12.0110           0
      8988 MEMB     66       DOPC     H11A     HAL2     0.900000E-01   1.00800           0
      8989 MEMB     66       DOPC     H11B     HAL2     0.900000E-01   1.00800           0
      8990 MEMB     66       DOPC     P        PL        1.50000       30.9740           0
      8991 MEMB     66       DOPC     O13      O2L     -0.780000       15.9994           0
      8992 MEMB     66       DOPC     O14      O2L     -0.780000       15.9994           0
      8993 MEMB     66       DOPC     O12      OSLP    -0.570000       15.9994           0
      8994 MEMB     66       DOPC     O11      OSLP    -0.570000       15.9994           0
      8995 MEMB     66       DOPC     C1       CTL2    -0.800000E-01   12.0110           0
      8996 MEMB     66       DOPC     HA       HAL2     0.900000E-01   1.00800           0
      8997 MEMB     66       DOPC     HB       HAL2     0.900000E-01   1.00800           0
      8998 MEMB     66       DOPC     C2       CTL1     0.170000       12.0110           0
      8999 MEMB     66       DOPC     HS       HAL1     0.900000E-01   1.00800           0
      9000 MEMB     66       DOPC     O21      OSL     -0.490000       15.9994           0
      9001 MEMB     66       DOPC     C21      CL       0.900000       12.0110           0
      9002 MEMB     66       DOPC     O22      OBL     -0.630000       15.9994           0
      9003 MEMB     66       DOPC     C22      CTL2    -0.220000       12.0110           0
      9004 MEMB     66       DOPC     H2R      HAL2     0.900000E-01   1.00800           0
      9005 MEMB     66       DOPC     H2S      HAL2     0.900000E-01   1.00800           0
      9006 MEMB     66       DOPC     C3       CTL2     0.800000E-01   12.0110           0
      9007 MEMB     66       DOPC     HX       HAL2     0.900000E-01   1.00800           0
      9008 MEMB     66       DOPC     HY       HAL2     0.900000E-01   1.00800           0
      9009 MEMB     66       DOPC     O31      OSL     -0.490000       15.9994           0
      9010 MEMB     66       DOPC     C31      CL       0.900000       12.0110           0
      9011 MEMB     66       DOPC     O32      OBL     -0.630000       15.9994           0
      9012 MEMB     66       DOPC     C32      CTL2    -0.220000       12.0110           0
      9013 MEMB     66       DOPC     H2X      HAL2     0.900000E-01   1.00800           0
      9014 MEMB     66       DOPC     H2Y      HAL2     0.900000E-01   1.00800           0
      9015 MEMB     66       DOPC     C23      CTL2    -0.180000       12.0110           0
      9016 MEMB     66       DOPC     H3R      HAL2     0.900000E-01   1.00800           0
      9017 MEMB     66       DOPC     H3S      HAL2     0.900000E-01   1.00800           0
      9018 MEMB     66       DOPC     C24      CTL2    -0.180000       12.0110           0
      9019 MEMB     66       DOPC     H4R      HAL2     0.900000E-01   1.00800           0
      9020 MEMB     66       DOPC     H4S      HAL2     0.900000E-01   1.00800           0
      9021 MEMB     66       DOPC     C25      CTL2    -0.180000       12.0110           0
      9022 MEMB     66       DOPC     H5R      HAL2     0.900000E-01   1.00800           0
      9023 MEMB     66       DOPC     H5S      HAL2     0.900000E-01   1.00800           0
      9024 MEMB     66       DOPC     C26      CTL2    -0.180000       12.0110           0
      9025 MEMB     66       DOPC     H6R      HAL2     0.900000E-01   1.00800           0
      9026 MEMB     66       DOPC     H6S      HAL2     0.900000E-01   1.00800           0
      9027 MEMB     66       DOPC     C27      CTL2    -0.180000       12.0110           0
      9028 MEMB     66       DOPC     H7R      HAL2     0.900000E-01   1.00800           0
      9029 MEMB     66       DOPC     H7S      HAL2     0.900000E-01   1.00800           0
      9030 MEMB     66       DOPC     C28      CTL2    -0.180000       12.0110           0
      9031 MEMB     66       DOPC     H8R      HAL2     0.900000E-01   1.00800           0
      9032 MEMB     66       DOPC     H8S      HAL2     0.900000E-01   1.00800           0
      9033 MEMB     66       DOPC     C29      CEL1    -0.150000       12.0110           0
      9034 MEMB     66       DOPC     H9R      HEL1     0.150000       1.00800           0
      9035 MEMB     66       DOPC     C210     CEL1    -0.150000       12.0110           0
      9036 MEMB     66       DOPC     H10R     HEL1     0.150000       1.00800           0
      9037 MEMB     66       DOPC     C211     CTL2    -0.180000       12.0110           0
      9038 MEMB     66       DOPC     H11R     HAL2     0.900000E-01   1.00800           0
      9039 MEMB     66       DOPC     H11S     HAL2     0.900000E-01   1.00800           0
      9040 MEMB     66       DOPC     C212     CTL2    -0.180000       12.0110           0
      9041 MEMB     66       DOPC     H12R     HAL2     0.900000E-01   1.00800           0
      9042 MEMB     66       DOPC     H12S     HAL2     0.900000E-01   1.00800           0
      9043 MEMB     66       DOPC     C213     CTL2    -0.180000       12.0110           0
      9044 MEMB     66       DOPC     H13R     HAL2     0.900000E-01   1.00800           0
      9045 MEMB     66       DOPC     H13S     HAL2     0.900000E-01   1.00800           0
      9046 MEMB     66       DOPC     C214     CTL2    -0.180000       12.0110           0
      9047 MEMB     66       DOPC     H14R     HAL2     0.900000E-01   1.00800           0
      9048 MEMB     66       DOPC     H14S     HAL2     0.900000E-01   1.00800           0
      9049 MEMB     66       DOPC     C215     CTL2    -0.180000       12.0110           0
      9050 MEMB     66       DOPC     H15R     HAL2     0.900000E-01   1.00800           0
      9051 MEMB     66       DOPC     H15S     HAL2     0.900000E-01   1.00800           0
      9052 MEMB     66       DOPC     C216     CTL2    -0.180000       12.0110           0
      9053 MEMB     66       DOPC     H16R     HAL2     0.900000E-01   1.00800           0
      9054 MEMB     66       DOPC     H16S     HAL2     0.900000E-01   1.00800           0
      9055 MEMB     66       DOPC     C217     CTL2    -0.180000       12.0110           0
      9056 MEMB     66       DOPC     H17R     HAL2     0.900000E-01   1.00800           0
      9057 MEMB     66       DOPC     H17S     HAL2     0.900000E-01   1.00800           0
      9058 MEMB     66       DOPC     C218     CTL3    -0.270000       12.0110           0
      9059 MEMB     66       DOPC     H18R     HAL3     0.900000E-01   1.00800           0
      9060 MEMB     66       DOPC     H18S     HAL3     0.900000E-01   1.00800           0
      9061 MEMB     66       DOPC     H18T     HAL3     0.900000E-01   1.00800           0
      9062 MEMB     66       DOPC     C33      CTL2    -0.180000       12.0110           0
      9063 MEMB     66       DOPC     H3X      HAL2     0.900000E-01   1.00800           0
      9064 MEMB     66       DOPC     H3Y      HAL2     0.900000E-01   1.00800           0
      9065 MEMB     66       DOPC     C34      CTL2    -0.180000       12.0110           0
      9066 MEMB     66       DOPC     H4X      HAL2     0.900000E-01   1.00800           0
      9067 MEMB     66       DOPC     H4Y      HAL2     0.900000E-01   1.00800           0
      9068 MEMB     66       DOPC     C35      CTL2    -0.180000       12.0110           0
      9069 MEMB     66       DOPC     H5X      HAL2     0.900000E-01   1.00800           0
      9070 MEMB     66       DOPC     H5Y      HAL2     0.900000E-01   1.00800           0
      9071 MEMB     66       DOPC     C36      CTL2    -0.180000       12.0110           0
      9072 MEMB     66       DOPC     H6X      HAL2     0.900000E-01   1.00800           0
      9073 MEMB     66       DOPC     H6Y      HAL2     0.900000E-01   1.00800           0
      9074 MEMB     66       DOPC     C37      CTL2    -0.180000       12.0110           0
      9075 MEMB     66       DOPC     H7X      HAL2     0.900000E-01   1.00800           0
      9076 MEMB     66       DOPC     H7Y      HAL2     0.900000E-01   1.00800           0
      9077 MEMB     66       DOPC     C38      CTL2    -0.180000       12.0110           0
      9078 MEMB     66       DOPC     H8X      HAL2     0.900000E-01   1.00800           0
      9079 MEMB     66       DOPC     H8Y      HAL2     0.900000E-01   1.00800           0
      9080 MEMB     66       DOPC     C39      CEL1    -0.150000       12.0110           0
      9081 MEMB     66       DOPC     H9X      HEL1     0.150000       1.00800           0
      9082 MEMB     66       DOPC     C310     CEL1    -0.150000       12.0110           0
      9083 MEMB     66       DOPC     H10X     HEL1     0.150000       1.00800           0
      9084 MEMB     66       DOPC     C311     CTL2    -0.180000       12.0110           0
      9085 MEMB     66       DOPC     H11X     HAL2     0.900000E-01   1.00800           0
      9086 MEMB     66       DOPC     H11Y     HAL2     0.900000E-01   1.00800           0
      9087 MEMB     66       DOPC     C312     CTL2    -0.180000       12.0110           0
      9088 MEMB     66       DOPC     H12X     HAL2     0.900000E-01   1.00800           0
      9089 MEMB     66       DOPC     H12Y     HAL2     0.900000E-01   1.00800           0
      9090 MEMB     66       DOPC     C313     CTL2    -0.180000       12.0110           0
      9091 MEMB     66       DOPC     H13X     HAL2     0.900000E-01   1.00800           0
      9092 MEMB     66       DOPC     H13Y     HAL2     0.900000E-01   1.00800           0
      9093 MEMB     66       DOPC     C314     CTL2    -0.180000       12.0110           0
      9094 MEMB     66       DOPC     H14X     HAL2     0.900000E-01   1.00800           0
      9095 MEMB     66       DOPC     H14Y     HAL2     0.900000E-01   1.00800           0
      9096 MEMB     66       DOPC     C315     CTL2    -0.180000       12.0110           0
      9097 MEMB     66       DOPC     H15X     HAL2     0.900000E-01   1.00800           0
      9098 MEMB     66       DOPC     H15Y     HAL2     0.900000E-01   1.00800           0
      9099 MEMB     66       DOPC     C316     CTL2    -0.180000       12.0110           0
      9100 MEMB     66       DOPC     H16X     HAL2     0.900000E-01   1.00800           0
      9101 MEMB     66       DOPC     H16Y     HAL2     0.900000E-01   1.00800           0
      9102 MEMB     66       DOPC     C317     CTL2    -0.180000       12.0110           0
      9103 MEMB     66       DOPC     H17X     HAL2     0.900000E-01   1.00800           0
      9104 MEMB     66       DOPC     H17Y     HAL2     0.900000E-01   1.00800           0
      9105 MEMB     66       DOPC     C318     CTL3    -0.270000       12.0110           0
      9106 MEMB     66       DOPC     H18X     HAL3     0.900000E-01   1.00800           0
      9107 MEMB     66       DOPC     H18Y     HAL3     0.900000E-01   1.00800           0
      9108 MEMB     66       DOPC     H18Z     HAL3     0.900000E-01   1.00800           0
      9109 MEMB     67       DOPC     N        NTL     -0.600000       14.0070           0
      9110 MEMB     67       DOPC     C12      CTL2    -0.100000       12.0110           0
      9111 MEMB     67       DOPC     H12A     HL       0.250000       1.00800           0
      9112 MEMB     67       DOPC     H12B     HL       0.250000       1.00800           0
      9113 MEMB     67       DOPC     C13      CTL5    -0.350000       12.0110           0
      9114 MEMB     67       DOPC     H13A     HL       0.250000       1.00800           0
      9115 MEMB     67       DOPC     H13B     HL       0.250000       1.00800           0
      9116 MEMB     67       DOPC     H13C     HL       0.250000       1.00800           0
      9117 MEMB     67       DOPC     C14      CTL5    -0.350000       12.0110           0
      9118 MEMB     67       DOPC     H14A     HL       0.250000       1.00800           0
      9119 MEMB     67       DOPC     H14B     HL       0.250000       1.00800           0
      9120 MEMB     67       DOPC     H14C     HL       0.250000       1.00800           0
      9121 MEMB     67       DOPC     C15      CTL5    -0.350000       12.0110           0
      9122 MEMB     67       DOPC     H15A     HL       0.250000       1.00800           0
      9123 MEMB     67       DOPC     H15B     HL       0.250000       1.00800           0
      9124 MEMB     67       DOPC     H15C     HL       0.250000       1.00800           0
      9125 MEMB     67       DOPC     C11      CTL2    -0.800000E-01   12.0110           0
      9126 MEMB     67       DOPC     H11A     HAL2     0.900000E-01   1.00800           0
      9127 MEMB     67       DOPC     H11B     HAL2     0.900000E-01   1.00800           0
      9128 MEMB     67       DOPC     P        PL        1.50000       30.9740           0
      9129 MEMB     67       DOPC     O13      O2L     -0.780000       15.9994           0
      9130 MEMB     67       DOPC     O14      O2L     -0.780000       15.9994           0
      9131 MEMB     67       DOPC     O12      OSLP    -0.570000       15.9994           0
      9132 MEMB     67       DOPC     O11      OSLP    -0.570000       15.9994           0
      9133 MEMB     67       DOPC     C1       CTL2    -0.800000E-01   12.0110           0
      9134 MEMB     67       DOPC     HA       HAL2     0.900000E-01   1.00800           0
      9135 MEMB     67       DOPC     HB       HAL2     0.900000E-01   1.00800           0
      9136 MEMB     67       DOPC     C2       CTL1     0.170000       12.0110           0
      9137 MEMB     67       DOPC     HS       HAL1     0.900000E-01   1.00800           0
      9138 MEMB     67       DOPC     O21      OSL     -0.490000       15.9994           0
      9139 MEMB     67       DOPC     C21      CL       0.900000       12.0110           0
      9140 MEMB     67       DOPC     O22      OBL     -0.630000       15.9994           0
      9141 MEMB     67       DOPC     C22      CTL2    -0.220000       12.0110           0
      9142 MEMB     67       DOPC     H2R      HAL2     0.900000E-01   1.00800           0
      9143 MEMB     67       DOPC     H2S      HAL2     0.900000E-01   1.00800           0
      9144 MEMB     67       DOPC     C3       CTL2     0.800000E-01   12.0110           0
      9145 MEMB     67       DOPC     HX       HAL2     0.900000E-01   1.00800           0
      9146 MEMB     67       DOPC     HY       HAL2     0.900000E-01   1.00800           0
      9147 MEMB     67       DOPC     O31      OSL     -0.490000       15.9994           0
      9148 MEMB     67       DOPC     C31      CL       0.900000       12.0110           0
      9149 MEMB     67       DOPC     O32      OBL     -0.630000       15.9994           0
      9150 MEMB     67       DOPC     C32      CTL2    -0.220000       12.0110           0
      9151 MEMB     67       DOPC     H2X      HAL2     0.900000E-01   1.00800           0
      9152 MEMB     67       DOPC     H2Y      HAL2     0.900000E-01   1.00800           0
      9153 MEMB     67       DOPC     C23      CTL2    -0.180000       12.0110           0
      9154 MEMB     67       DOPC     H3R      HAL2     0.900000E-01   1.00800           0
      9155 MEMB     67       DOPC     H3S      HAL2     0.900000E-01   1.00800           0
      9156 MEMB     67       DOPC     C24      CTL2    -0.180000       12.0110           0
      9157 MEMB     67       DOPC     H4R      HAL2     0.900000E-01   1.00800           0
      9158 MEMB     67       DOPC     H4S      HAL2     0.900000E-01   1.00800           0
      9159 MEMB     67       DOPC     C25      CTL2    -0.180000       12.0110           0
      9160 MEMB     67       DOPC     H5R      HAL2     0.900000E-01   1.00800           0
      9161 MEMB     67       DOPC     H5S      HAL2     0.900000E-01   1.00800           0
      9162 MEMB     67       DOPC     C26      CTL2    -0.180000       12.0110           0
      9163 MEMB     67       DOPC     H6R      HAL2     0.900000E-01   1.00800           0
      9164 MEMB     67       DOPC     H6S      HAL2     0.900000E-01   1.00800           0
      9165 MEMB     67       DOPC     C27      CTL2    -0.180000       12.0110           0
      9166 MEMB     67       DOPC     H7R      HAL2     0.900000E-01   1.00800           0
      9167 MEMB     67       DOPC     H7S      HAL2     0.900000E-01   1.00800           0
      9168 MEMB     67       DOPC     C28      CTL2    -0.180000       12.0110           0
      9169 MEMB     67       DOPC     H8R      HAL2     0.900000E-01   1.00800           0
      9170 MEMB     67       DOPC     H8S      HAL2     0.900000E-01   1.00800           0
      9171 MEMB     67       DOPC     C29      CEL1    -0.150000       12.0110           0
      9172 MEMB     67       DOPC     H9R      HEL1     0.150000       1.00800           0
      9173 MEMB     67       DOPC     C210     CEL1    -0.150000       12.0110           0
      9174 MEMB     67       DOPC     H10R     HEL1     0.150000       1.00800           0
      9175 MEMB     67       DOPC     C211     CTL2    -0.180000       12.0110           0
      9176 MEMB     67       DOPC     H11R     HAL2     0.900000E-01   1.00800           0
      9177 MEMB     67       DOPC     H11S     HAL2     0.900000E-01   1.00800           0
      9178 MEMB     67       DOPC     C212     CTL2    -0.180000       12.0110           0
      9179 MEMB     67       DOPC     H12R     HAL2     0.900000E-01   1.00800           0
      9180 MEMB     67       DOPC     H12S     HAL2     0.900000E-01   1.00800           0
      9181 MEMB     67       DOPC     C213     CTL2    -0.180000       12.0110           0
      9182 MEMB     67       DOPC     H13R     HAL2     0.900000E-01   1.00800           0
      9183 MEMB     67       DOPC     H13S     HAL2     0.900000E-01   1.00800           0
      9184 MEMB     67       DOPC     C214     CTL2    -0.180000       12.0110           0
      9185 MEMB     67       DOPC     H14R     HAL2     0.900000E-01   1.00800           0
      9186 MEMB     67       DOPC     H14S     HAL2     0.900000E-01   1.00800           0
      9187 MEMB     67       DOPC     C215     CTL2    -0.180000       12.0110           0
      9188 MEMB     67       DOPC     H15R     HAL2     0.900000E-01   1.00800           0
      9189 MEMB     67       DOPC     H15S     HAL2     0.900000E-01   1.00800           0
      9190 MEMB     67       DOPC     C216     CTL2    -0.180000       12.0110           0
      9191 MEMB     67       DOPC     H16R     HAL2     0.900000E-01   1.00800           0
      9192 MEMB     67       DOPC     H16S     HAL2     0.900000E-01   1.00800           0
      9193 MEMB     67       DOPC     C217     CTL2    -0.180000       12.0110           0
      9194 MEMB     67       DOPC     H17R     HAL2     0.900000E-01   1.00800           0
      9195 MEMB     67       DOPC     H17S     HAL2     0.900000E-01   1.00800           0
      9196 MEMB     67       DOPC     C218     CTL3    -0.270000       12.0110           0
      9197 MEMB     67       DOPC     H18R     HAL3     0.900000E-01   1.00800           0
      9198 MEMB     67       DOPC     H18S     HAL3     0.900000E-01   1.00800           0
      9199 MEMB     67       DOPC     H18T     HAL3     0.900000E-01   1.00800           0
      9200 MEMB     67       DOPC     C33      CTL2    -0.180000       12.0110           0
      9201 MEMB     67       DOPC     H3X      HAL2     0.900000E-01   1.00800           0
      9202 MEMB     67       DOPC     H3Y      HAL2     0.900000E-01   1.00800           0
      9203 MEMB     67       DOPC     C34      CTL2    -0.180000       12.0110           0
      9204 MEMB     67       DOPC     H4X      HAL2     0.900000E-01   1.00800           0
      9205 MEMB     67       DOPC     H4Y      HAL2     0.900000E-01   1.00800           0
      9206 MEMB     67       DOPC     C35      CTL2    -0.180000       12.0110           0
      9207 MEMB     67       DOPC     H5X      HAL2     0.900000E-01   1.00800           0
      9208 MEMB     67       DOPC     H5Y      HAL2     0.900000E-01   1.00800           0
      9209 MEMB     67       DOPC     C36      CTL2    -0.180000       12.0110           0
      9210 MEMB     67       DOPC     H6X      HAL2     0.900000E-01   1.00800           0
      9211 MEMB     67       DOPC     H6Y      HAL2     0.900000E-01   1.00800           0
      9212 MEMB     67       DOPC     C37      CTL2    -0.180000       12.0110           0
      9213 MEMB     67       DOPC     H7X      HAL2     0.900000E-01   1.00800           0
      9214 MEMB     67       DOPC     H7Y      HAL2     0.900000E-01   1.00800           0
      9215 MEMB     67       DOPC     C38      CTL2    -0.180000       12.0110           0
      9216 MEMB     67       DOPC     H8X      HAL2     0.900000E-01   1.00800           0
      9217 MEMB     67       DOPC     H8Y      HAL2     0.900000E-01   1.00800           0
      9218 MEMB     67       DOPC     C39      CEL1    -0.150000       12.0110           0
      9219 MEMB     67       DOPC     H9X      HEL1     0.150000       1.00800           0
      9220 MEMB     67       DOPC     C310     CEL1    -0.150000       12.0110           0
      9221 MEMB     67       DOPC     H10X     HEL1     0.150000       1.00800           0
      9222 MEMB     67       DOPC     C311     CTL2    -0.180000       12.0110           0
      9223 MEMB     67       DOPC     H11X     HAL2     0.900000E-01   1.00800           0
      9224 MEMB     67       DOPC     H11Y     HAL2     0.900000E-01   1.00800           0
      9225 MEMB     67       DOPC     C312     CTL2    -0.180000       12.0110           0
      9226 MEMB     67       DOPC     H12X     HAL2     0.900000E-01   1.00800           0
      9227 MEMB     67       DOPC     H12Y     HAL2     0.900000E-01   1.00800           0
      9228 MEMB     67       DOPC     C313     CTL2    -0.180000       12.0110           0
      9229 MEMB     67       DOPC     H13X     HAL2     0.900000E-01   1.00800           0
      9230 MEMB     67       DOPC     H13Y     HAL2     0.900000E-01   1.00800           0
      9231 MEMB     67       DOPC     C314     CTL2    -0.180000       12.0110           0
      9232 MEMB     67       DOPC     H14X     HAL2     0.900000E-01   1.00800           0
      9233 MEMB     67       DOPC     H14Y     HAL2     0.900000E-01   1.00800           0
      9234 MEMB     67       DOPC     C315     CTL2    -0.180000       12.0110           0
      9235 MEMB     67       DOPC     H15X     HAL2     0.900000E-01   1.00800           0
      9236 MEMB     67       DOPC     H15Y     HAL2     0.900000E-01   1.00800           0
      9237 MEMB     67       DOPC     C316     CTL2    -0.180000       12.0110           0
      9238 MEMB     67       DOPC     H16X     HAL2     0.900000E-01   1.00800           0
      9239 MEMB     67       DOPC     H16Y     HAL2     0.900000E-01   1.00800           0
      9240 MEMB     67       DOPC     C317     CTL2    -0.180000       12.0110           0
      9241 MEMB     67       DOPC     H17X     HAL2     0.900000E-01   1.00800           0
      9242 MEMB     67       DOPC     H17Y     HAL2     0.900000E-01   1.00800           0
      9243 MEMB     67       DOPC     C318     CTL3    -0.270000       12.0110           0
      9244 MEMB     67       DOPC     H18X     HAL3     0.900000E-01   1.00800           0
      9245 MEMB     67       DOPC     H18Y     HAL3     0.900000E-01   1.00800           0
      9246 MEMB     67       DOPC     H18Z     HAL3     0.900000E-01   1.00800           0
      9247 MEMB     68       DOPC     N        NTL     -0.600000       14.0070           0
      9248 MEMB     68       DOPC     C12      CTL2    -0.100000       12.0110           0
      9249 MEMB     68       DOPC     H12A     HL       0.250000       1.00800           0
      9250 MEMB     68       DOPC     H12B     HL       0.250000       1.00800           0
      9251 MEMB     68       DOPC     C13      CTL5    -0.350000       12.0110           0
      9252 MEMB     68       DOPC     H13A     HL       0.250000       1.00800           0
      9253 MEMB     68       DOPC     H13B     HL       0.250000       1.00800           0
      9254 MEMB     68       DOPC     H13C     HL       0.250000       1.00800           0
      9255 MEMB     68       DOPC     C14      CTL5    -0.350000       12.0110           0
      9256 MEMB     68       DOPC     H14A     HL       0.250000       1.00800           0
      9257 MEMB     68       DOPC     H14B     HL       0.250000       1.00800           0
      9258 MEMB     68       DOPC     H14C     HL       0.250000       1.00800           0
      9259 MEMB     68       DOPC     C15      CTL5    -0.350000       12.0110           0
      9260 MEMB     68       DOPC     H15A     HL       0.250000       1.00800           0
      9261 MEMB     68       DOPC     H15B     HL       0.250000       1.00800           0
      9262 MEMB     68       DOPC     H15C     HL       0.250000       1.00800           0
      9263 MEMB     68       DOPC     C11      CTL2    -0.800000E-01   12.0110           0
      9264 MEMB     68       DOPC     H11A     HAL2     0.900000E-01   1.00800           0
      9265 MEMB     68       DOPC     H11B     HAL2     0.900000E-01   1.00800           0
      9266 MEMB     68       DOPC     P        PL        1.50000       30.9740           0
      9267 MEMB     68       DOPC     O13      O2L     -0.780000       15.9994           0
      9268 MEMB     68       DOPC     O14      O2L     -0.780000       15.9994           0
      9269 MEMB     68       DOPC     O12      OSLP    -0.570000       15.9994           0
      9270 MEMB     68       DOPC     O11      OSLP    -0.570000       15.9994           0
      9271 MEMB     68       DOPC     C1       CTL2    -0.800000E-01   12.0110           0
      9272 MEMB     68       DOPC     HA       HAL2     0.900000E-01   1.00800           0
      9273 MEMB     68       DOPC     HB       HAL2     0.900000E-01   1.00800           0
      9274 MEMB     68       DOPC     C2       CTL1     0.170000       12.0110           0
      9275 MEMB     68       DOPC     HS       HAL1     0.900000E-01   1.00800           0
      9276 MEMB     68       DOPC     O21      OSL     -0.490000       15.9994           0
      9277 MEMB     68       DOPC     C21      CL       0.900000       12.0110           0
      9278 MEMB     68       DOPC     O22      OBL     -0.630000       15.9994           0
      9279 MEMB     68       DOPC     C22      CTL2    -0.220000       12.0110           0
      9280 MEMB     68       DOPC     H2R      HAL2     0.900000E-01   1.00800           0
      9281 MEMB     68       DOPC     H2S      HAL2     0.900000E-01   1.00800           0
      9282 MEMB     68       DOPC     C3       CTL2     0.800000E-01   12.0110           0
      9283 MEMB     68       DOPC     HX       HAL2     0.900000E-01   1.00800           0
      9284 MEMB     68       DOPC     HY       HAL2     0.900000E-01   1.00800           0
      9285 MEMB     68       DOPC     O31      OSL     -0.490000       15.9994           0
      9286 MEMB     68       DOPC     C31      CL       0.900000       12.0110           0
      9287 MEMB     68       DOPC     O32      OBL     -0.630000       15.9994           0
      9288 MEMB     68       DOPC     C32      CTL2    -0.220000       12.0110           0
      9289 MEMB     68       DOPC     H2X      HAL2     0.900000E-01   1.00800           0
      9290 MEMB     68       DOPC     H2Y      HAL2     0.900000E-01   1.00800           0
      9291 MEMB     68       DOPC     C23      CTL2    -0.180000       12.0110           0
      9292 MEMB     68       DOPC     H3R      HAL2     0.900000E-01   1.00800           0
      9293 MEMB     68       DOPC     H3S      HAL2     0.900000E-01   1.00800           0
      9294 MEMB     68       DOPC     C24      CTL2    -0.180000       12.0110           0
      9295 MEMB     68       DOPC     H4R      HAL2     0.900000E-01   1.00800           0
      9296 MEMB     68       DOPC     H4S      HAL2     0.900000E-01   1.00800           0
      9297 MEMB     68       DOPC     C25      CTL2    -0.180000       12.0110           0
      9298 MEMB     68       DOPC     H5R      HAL2     0.900000E-01   1.00800           0
      9299 MEMB     68       DOPC     H5S      HAL2     0.900000E-01   1.00800           0
      9300 MEMB     68       DOPC     C26      CTL2    -0.180000       12.0110           0
      9301 MEMB     68       DOPC     H6R      HAL2     0.900000E-01   1.00800           0
      9302 MEMB     68       DOPC     H6S      HAL2     0.900000E-01   1.00800           0
      9303 MEMB     68       DOPC     C27      CTL2    -0.180000       12.0110           0
      9304 MEMB     68       DOPC     H7R      HAL2     0.900000E-01   1.00800           0
      9305 MEMB     68       DOPC     H7S      HAL2     0.900000E-01   1.00800           0
      9306 MEMB     68       DOPC     C28      CTL2    -0.180000       12.0110           0
      9307 MEMB     68       DOPC     H8R      HAL2     0.900000E-01   1.00800           0
      9308 MEMB     68       DOPC     H8S      HAL2     0.900000E-01   1.00800           0
      9309 MEMB     68       DOPC     C29      CEL1    -0.150000       12.0110           0
      9310 MEMB     68       DOPC     H9R      HEL1     0.150000       1.00800           0
      9311 MEMB     68       DOPC     C210     CEL1    -0.150000       12.0110           0
      9312 MEMB     68       DOPC     H10R     HEL1     0.150000       1.00800           0
      9313 MEMB     68       DOPC     C211     CTL2    -0.180000       12.0110           0
      9314 MEMB     68       DOPC     H11R     HAL2     0.900000E-01   1.00800           0
      9315 MEMB     68       DOPC     H11S     HAL2     0.900000E-01   1.00800           0
      9316 MEMB     68       DOPC     C212     CTL2    -0.180000       12.0110           0
      9317 MEMB     68       DOPC     H12R     HAL2     0.900000E-01   1.00800           0
      9318 MEMB     68       DOPC     H12S     HAL2     0.900000E-01   1.00800           0
      9319 MEMB     68       DOPC     C213     CTL2    -0.180000       12.0110           0
      9320 MEMB     68       DOPC     H13R     HAL2     0.900000E-01   1.00800           0
      9321 MEMB     68       DOPC     H13S     HAL2     0.900000E-01   1.00800           0
      9322 MEMB     68       DOPC     C214     CTL2    -0.180000       12.0110           0
      9323 MEMB     68       DOPC     H14R     HAL2     0.900000E-01   1.00800           0
      9324 MEMB     68       DOPC     H14S     HAL2     0.900000E-01   1.00800           0
      9325 MEMB     68       DOPC     C215     CTL2    -0.180000       12.0110           0
      9326 MEMB     68       DOPC     H15R     HAL2     0.900000E-01   1.00800           0
      9327 MEMB     68       DOPC     H15S     HAL2     0.900000E-01   1.00800           0
      9328 MEMB     68       DOPC     C216     CTL2    -0.180000       12.0110           0
      9329 MEMB     68       DOPC     H16R     HAL2     0.900000E-01   1.00800           0
      9330 MEMB     68       DOPC     H16S     HAL2     0.900000E-01   1.00800           0
      9331 MEMB     68       DOPC     C217     CTL2    -0.180000       12.0110           0
      9332 MEMB     68       DOPC     H17R     HAL2     0.900000E-01   1.00800           0
      9333 MEMB     68       DOPC     H17S     HAL2     0.900000E-01   1.00800           0
      9334 MEMB     68       DOPC     C218     CTL3    -0.270000       12.0110           0
      9335 MEMB     68       DOPC     H18R     HAL3     0.900000E-01   1.00800           0
      9336 MEMB     68       DOPC     H18S     HAL3     0.900000E-01   1.00800           0
      9337 MEMB     68       DOPC     H18T     HAL3     0.900000E-01   1.00800           0
      9338 MEMB     68       DOPC     C33      CTL2    -0.180000       12.0110           0
      9339 MEMB     68       DOPC     H3X      HAL2     0.900000E-01   1.00800           0
      9340 MEMB     68       DOPC     H3Y      HAL2     0.900000E-01   1.00800           0
      9341 MEMB     68       DOPC     C34      CTL2    -0.180000       12.0110           0
      9342 MEMB     68       DOPC     H4X      HAL2     0.900000E-01   1.00800           0
      9343 MEMB     68       DOPC     H4Y      HAL2     0.900000E-01   1.00800           0
      9344 MEMB     68       DOPC     C35      CTL2    -0.180000       12.0110           0
      9345 MEMB     68       DOPC     H5X      HAL2     0.900000E-01   1.00800           0
      9346 MEMB     68       DOPC     H5Y      HAL2     0.900000E-01   1.00800           0
      9347 MEMB     68       DOPC     C36      CTL2    -0.180000       12.0110           0
      9348 MEMB     68       DOPC     H6X      HAL2     0.900000E-01   1.00800           0
      9349 MEMB     68       DOPC     H6Y      HAL2     0.900000E-01   1.00800           0
      9350 MEMB     68       DOPC     C37      CTL2    -0.180000       12.0110           0
      9351 MEMB     68       DOPC     H7X      HAL2     0.900000E-01   1.00800           0
      9352 MEMB     68       DOPC     H7Y      HAL2     0.900000E-01   1.00800           0
      9353 MEMB     68       DOPC     C38      CTL2    -0.180000       12.0110           0
      9354 MEMB     68       DOPC     H8X      HAL2     0.900000E-01   1.00800           0
      9355 MEMB     68       DOPC     H8Y      HAL2     0.900000E-01   1.00800           0
      9356 MEMB     68       DOPC     C39      CEL1    -0.150000       12.0110           0
      9357 MEMB     68       DOPC     H9X      HEL1     0.150000       1.00800           0
      9358 MEMB     68       DOPC     C310     CEL1    -0.150000       12.0110           0
      9359 MEMB     68       DOPC     H10X     HEL1     0.150000       1.00800           0
      9360 MEMB     68       DOPC     C311     CTL2    -0.180000       12.0110           0
      9361 MEMB     68       DOPC     H11X     HAL2     0.900000E-01   1.00800           0
      9362 MEMB     68       DOPC     H11Y     HAL2     0.900000E-01   1.00800           0
      9363 MEMB     68       DOPC     C312     CTL2    -0.180000       12.0110           0
      9364 MEMB     68       DOPC     H12X     HAL2     0.900000E-01   1.00800           0
      9365 MEMB     68       DOPC     H12Y     HAL2     0.900000E-01   1.00800           0
      9366 MEMB     68       DOPC     C313     CTL2    -0.180000       12.0110           0
      9367 MEMB     68       DOPC     H13X     HAL2     0.900000E-01   1.00800           0
      9368 MEMB     68       DOPC     H13Y     HAL2     0.900000E-01   1.00800           0
      9369 MEMB     68       DOPC     C314     CTL2    -0.180000       12.0110           0
      9370 MEMB     68       DOPC     H14X     HAL2     0.900000E-01   1.00800           0
      9371 MEMB     68       DOPC     H14Y     HAL2     0.900000E-01   1.00800           0
      9372 MEMB     68       DOPC     C315     CTL2    -0.180000       12.0110           0
      9373 MEMB     68       DOPC     H15X     HAL2     0.900000E-01   1.00800           0
      9374 MEMB     68       DOPC     H15Y     HAL2     0.900000E-01   1.00800           0
      9375 MEMB     68       DOPC     C316     CTL2    -0.180000       12.0110           0
      9376 MEMB     68       DOPC     H16X     HAL2     0.900000E-01   1.00800           0
      9377 MEMB     68       DOPC     H16Y     HAL2     0.900000E-01   1.00800           0
      9378 MEMB     68       DOPC     C317     CTL2    -0.180000       12.0110           0
      9379 MEMB     68       DOPC     H17X     HAL2     0.900000E-01   1.00800           0
      9380 MEMB     68       DOPC     H17Y     HAL2     0.900000E-01   1.00800           0
      9381 MEMB     68       DOPC     C318     CTL3    -0.270000       12.0110           0
      9382 MEMB     68       DOPC     H18X     HAL3     0.900000E-01   1.00800           0
      9383 MEMB     68       DOPC     H18Y     HAL3     0.900000E-01   1.00800           0
      9384 MEMB     68       DOPC     H18Z     HAL3     0.900000E-01   1.00800           0
      9385 MEMB     69       DOPC     N        NTL     -0.600000       14.0070           0
      9386 MEMB     69       DOPC     C12      CTL2    -0.100000       12.0110           0
      9387 MEMB     69       DOPC     H12A     HL       0.250000       1.00800           0
      9388 MEMB     69       DOPC     H12B     HL       0.250000       1.00800           0
      9389 MEMB     69       DOPC     C13      CTL5    -0.350000       12.0110           0
      9390 MEMB     69       DOPC     H13A     HL       0.250000       1.00800           0
      9391 MEMB     69       DOPC     H13B     HL       0.250000       1.00800           0
      9392 MEMB     69       DOPC     H13C     HL       0.250000       1.00800           0
      9393 MEMB     69       DOPC     C14      CTL5    -0.350000       12.0110           0
      9394 MEMB     69       DOPC     H14A     HL       0.250000       1.00800           0
      9395 MEMB     69       DOPC     H14B     HL       0.250000       1.00800           0
      9396 MEMB     69       DOPC     H14C     HL       0.250000       1.00800           0
      9397 MEMB     69       DOPC     C15      CTL5    -0.350000       12.0110           0
      9398 MEMB     69       DOPC     H15A     HL       0.250000       1.00800           0
      9399 MEMB     69       DOPC     H15B     HL       0.250000       1.00800           0
      9400 MEMB     69       DOPC     H15C     HL       0.250000       1.00800           0
      9401 MEMB     69       DOPC     C11      CTL2    -0.800000E-01   12.0110           0
      9402 MEMB     69       DOPC     H11A     HAL2     0.900000E-01   1.00800           0
      9403 MEMB     69       DOPC     H11B     HAL2     0.900000E-01   1.00800           0
      9404 MEMB     69       DOPC     P        PL        1.50000       30.9740           0
      9405 MEMB     69       DOPC     O13      O2L     -0.780000       15.9994           0
      9406 MEMB     69       DOPC     O14      O2L     -0.780000       15.9994           0
      9407 MEMB     69       DOPC     O12      OSLP    -0.570000       15.9994           0
      9408 MEMB     69       DOPC     O11      OSLP    -0.570000       15.9994           0
      9409 MEMB     69       DOPC     C1       CTL2    -0.800000E-01   12.0110           0
      9410 MEMB     69       DOPC     HA       HAL2     0.900000E-01   1.00800           0
      9411 MEMB     69       DOPC     HB       HAL2     0.900000E-01   1.00800           0
      9412 MEMB     69       DOPC     C2       CTL1     0.170000       12.0110           0
      9413 MEMB     69       DOPC     HS       HAL1     0.900000E-01   1.00800           0
      9414 MEMB     69       DOPC     O21      OSL     -0.490000       15.9994           0
      9415 MEMB     69       DOPC     C21      CL       0.900000       12.0110           0
      9416 MEMB     69       DOPC     O22      OBL     -0.630000       15.9994           0
      9417 MEMB     69       DOPC     C22      CTL2    -0.220000       12.0110           0
      9418 MEMB     69       DOPC     H2R      HAL2     0.900000E-01   1.00800           0
      9419 MEMB     69       DOPC     H2S      HAL2     0.900000E-01   1.00800           0
      9420 MEMB     69       DOPC     C3       CTL2     0.800000E-01   12.0110           0
      9421 MEMB     69       DOPC     HX       HAL2     0.900000E-01   1.00800           0
      9422 MEMB     69       DOPC     HY       HAL2     0.900000E-01   1.00800           0
      9423 MEMB     69       DOPC     O31      OSL     -0.490000       15.9994           0
      9424 MEMB     69       DOPC     C31      CL       0.900000       12.0110           0
      9425 MEMB     69       DOPC     O32      OBL     -0.630000       15.9994           0
      9426 MEMB     69       DOPC     C32      CTL2    -0.220000       12.0110           0
      9427 MEMB     69       DOPC     H2X      HAL2     0.900000E-01   1.00800           0
      9428 MEMB     69       DOPC     H2Y      HAL2     0.900000E-01   1.00800           0
      9429 MEMB     69       DOPC     C23      CTL2    -0.180000       12.0110           0
      9430 MEMB     69       DOPC     H3R      HAL2     0.900000E-01   1.00800           0
      9431 MEMB     69       DOPC     H3S      HAL2     0.900000E-01   1.00800           0
      9432 MEMB     69       DOPC     C24      CTL2    -0.180000       12.0110           0
      9433 MEMB     69       DOPC     H4R      HAL2     0.900000E-01   1.00800           0
      9434 MEMB     69       DOPC     H4S      HAL2     0.900000E-01   1.00800           0
      9435 MEMB     69       DOPC     C25      CTL2    -0.180000       12.0110           0
      9436 MEMB     69       DOPC     H5R      HAL2     0.900000E-01   1.00800           0
      9437 MEMB     69       DOPC     H5S      HAL2     0.900000E-01   1.00800           0
      9438 MEMB     69       DOPC     C26      CTL2    -0.180000       12.0110           0
      9439 MEMB     69       DOPC     H6R      HAL2     0.900000E-01   1.00800           0
      9440 MEMB     69       DOPC     H6S      HAL2     0.900000E-01   1.00800           0
      9441 MEMB     69       DOPC     C27      CTL2    -0.180000       12.0110           0
      9442 MEMB     69       DOPC     H7R      HAL2     0.900000E-01   1.00800           0
      9443 MEMB     69       DOPC     H7S      HAL2     0.900000E-01   1.00800           0
      9444 MEMB     69       DOPC     C28      CTL2    -0.180000       12.0110           0
      9445 MEMB     69       DOPC     H8R      HAL2     0.900000E-01   1.00800           0
      9446 MEMB     69       DOPC     H8S      HAL2     0.900000E-01   1.00800           0
      9447 MEMB     69       DOPC     C29      CEL1    -0.150000       12.0110           0
      9448 MEMB     69       DOPC     H9R      HEL1     0.150000       1.00800           0
      9449 MEMB     69       DOPC     C210     CEL1    -0.150000       12.0110           0
      9450 MEMB     69       DOPC     H10R     HEL1     0.150000       1.00800           0
      9451 MEMB     69       DOPC     C211     CTL2    -0.180000       12.0110           0
      9452 MEMB     69       DOPC     H11R     HAL2     0.900000E-01   1.00800           0
      9453 MEMB     69       DOPC     H11S     HAL2     0.900000E-01   1.00800           0
      9454 MEMB     69       DOPC     C212     CTL2    -0.180000       12.0110           0
      9455 MEMB     69       DOPC     H12R     HAL2     0.900000E-01   1.00800           0
      9456 MEMB     69       DOPC     H12S     HAL2     0.900000E-01   1.00800           0
      9457 MEMB     69       DOPC     C213     CTL2    -0.180000       12.0110           0
      9458 MEMB     69       DOPC     H13R     HAL2     0.900000E-01   1.00800           0
      9459 MEMB     69       DOPC     H13S     HAL2     0.900000E-01   1.00800           0
      9460 MEMB     69       DOPC     C214     CTL2    -0.180000       12.0110           0
      9461 MEMB     69       DOPC     H14R     HAL2     0.900000E-01   1.00800           0
      9462 MEMB     69       DOPC     H14S     HAL2     0.900000E-01   1.00800           0
      9463 MEMB     69       DOPC     C215     CTL2    -0.180000       12.0110           0
      9464 MEMB     69       DOPC     H15R     HAL2     0.900000E-01   1.00800           0
      9465 MEMB     69       DOPC     H15S     HAL2     0.900000E-01   1.00800           0
      9466 MEMB     69       DOPC     C216     CTL2    -0.180000       12.0110           0
      9467 MEMB     69       DOPC     H16R     HAL2     0.900000E-01   1.00800           0
      9468 MEMB     69       DOPC     H16S     HAL2     0.900000E-01   1.00800           0
      9469 MEMB     69       DOPC     C217     CTL2    -0.180000       12.0110           0
      9470 MEMB     69       DOPC     H17R     HAL2     0.900000E-01   1.00800           0
      9471 MEMB     69       DOPC     H17S     HAL2     0.900000E-01   1.00800           0
      9472 MEMB     69       DOPC     C218     CTL3    -0.270000       12.0110           0
      9473 MEMB     69       DOPC     H18R     HAL3     0.900000E-01   1.00800           0
      9474 MEMB     69       DOPC     H18S     HAL3     0.900000E-01   1.00800           0
      9475 MEMB     69       DOPC     H18T     HAL3     0.900000E-01   1.00800           0
      9476 MEMB     69       DOPC     C33      CTL2    -0.180000       12.0110           0
      9477 MEMB     69       DOPC     H3X      HAL2     0.900000E-01   1.00800           0
      9478 MEMB     69       DOPC     H3Y      HAL2     0.900000E-01   1.00800           0
      9479 MEMB     69       DOPC     C34      CTL2    -0.180000       12.0110           0
      9480 MEMB     69       DOPC     H4X      HAL2     0.900000E-01   1.00800           0
      9481 MEMB     69       DOPC     H4Y      HAL2     0.900000E-01   1.00800           0
      9482 MEMB     69       DOPC     C35      CTL2    -0.180000       12.0110           0
      9483 MEMB     69       DOPC     H5X      HAL2     0.900000E-01   1.00800           0
      9484 MEMB     69       DOPC     H5Y      HAL2     0.900000E-01   1.00800           0
      9485 MEMB     69       DOPC     C36      CTL2    -0.180000       12.0110           0
      9486 MEMB     69       DOPC     H6X      HAL2     0.900000E-01   1.00800           0
      9487 MEMB     69       DOPC     H6Y      HAL2     0.900000E-01   1.00800           0
      9488 MEMB     69       DOPC     C37      CTL2    -0.180000       12.0110           0
      9489 MEMB     69       DOPC     H7X      HAL2     0.900000E-01   1.00800           0
      9490 MEMB     69       DOPC     H7Y      HAL2     0.900000E-01   1.00800           0
      9491 MEMB     69       DOPC     C38      CTL2    -0.180000       12.0110           0
      9492 MEMB     69       DOPC     H8X      HAL2     0.900000E-01   1.00800           0
      9493 MEMB     69       DOPC     H8Y      HAL2     0.900000E-01   1.00800           0
      9494 MEMB     69       DOPC     C39      CEL1    -0.150000       12.0110           0
      9495 MEMB     69       DOPC     H9X      HEL1     0.150000       1.00800           0
      9496 MEMB     69       DOPC     C310     CEL1    -0.150000       12.0110           0
      9497 MEMB     69       DOPC     H10X     HEL1     0.150000       1.00800           0
      9498 MEMB     69       DOPC     C311     CTL2    -0.180000       12.0110           0
      9499 MEMB     69       DOPC     H11X     HAL2     0.900000E-01   1.00800           0
      9500 MEMB     69       DOPC     H11Y     HAL2     0.900000E-01   1.00800           0
      9501 MEMB     69       DOPC     C312     CTL2    -0.180000       12.0110           0
      9502 MEMB     69       DOPC     H12X     HAL2     0.900000E-01   1.00800           0
      9503 MEMB     69       DOPC     H12Y     HAL2     0.900000E-01   1.00800           0
      9504 MEMB     69       DOPC     C313     CTL2    -0.180000       12.0110           0
      9505 MEMB     69       DOPC     H13X     HAL2     0.900000E-01   1.00800           0
      9506 MEMB     69       DOPC     H13Y     HAL2     0.900000E-01   1.00800           0
      9507 MEMB     69       DOPC     C314     CTL2    -0.180000       12.0110           0
      9508 MEMB     69       DOPC     H14X     HAL2     0.900000E-01   1.00800           0
      9509 MEMB     69       DOPC     H14Y     HAL2     0.900000E-01   1.00800           0
      9510 MEMB     69       DOPC     C315     CTL2    -0.180000       12.0110           0
      9511 MEMB     69       DOPC     H15X     HAL2     0.900000E-01   1.00800           0
      9512 MEMB     69       DOPC     H15Y     HAL2     0.900000E-01   1.00800           0
      9513 MEMB     69       DOPC     C316     CTL2    -0.180000       12.0110           0
      9514 MEMB     69       DOPC     H16X     HAL2     0.900000E-01   1.00800           0
      9515 MEMB     69       DOPC     H16Y     HAL2     0.900000E-01   1.00800           0
      9516 MEMB     69       DOPC     C317     CTL2    -0.180000       12.0110           0
      9517 MEMB     69       DOPC     H17X     HAL2     0.900000E-01   1.00800           0
      9518 MEMB     69       DOPC     H17Y     HAL2     0.900000E-01   1.00800           0
      9519 MEMB     69       DOPC     C318     CTL3    -0.270000       12.0110           0
      9520 MEMB     69       DOPC     H18X     HAL3     0.900000E-01   1.00800           0
      9521 MEMB     69       DOPC     H18Y     HAL3     0.900000E-01   1.00800           0
      9522 MEMB     69       DOPC     H18Z     HAL3     0.900000E-01   1.00800           0
      9523 MEMB     70       DOPC     N        NTL     -0.600000       14.0070           0
      9524 MEMB     70       DOPC     C12      CTL2    -0.100000       12.0110           0
      9525 MEMB     70       DOPC     H12A     HL       0.250000       1.00800           0
      9526 MEMB     70       DOPC     H12B     HL       0.250000       1.00800           0
      9527 MEMB     70       DOPC     C13      CTL5    -0.350000       12.0110           0
      9528 MEMB     70       DOPC     H13A     HL       0.250000       1.00800           0
      9529 MEMB     70       DOPC     H13B     HL       0.250000       1.00800           0
      9530 MEMB     70       DOPC     H13C     HL       0.250000       1.00800           0
      9531 MEMB     70       DOPC     C14      CTL5    -0.350000       12.0110           0
      9532 MEMB     70       DOPC     H14A     HL       0.250000       1.00800           0
      9533 MEMB     70       DOPC     H14B     HL       0.250000       1.00800           0
      9534 MEMB     70       DOPC     H14C     HL       0.250000       1.00800           0
      9535 MEMB     70       DOPC     C15      CTL5    -0.350000       12.0110           0
      9536 MEMB     70       DOPC     H15A     HL       0.250000       1.00800           0
      9537 MEMB     70       DOPC     H15B     HL       0.250000       1.00800           0
      9538 MEMB     70       DOPC     H15C     HL       0.250000       1.00800           0
      9539 MEMB     70       DOPC     C11      CTL2    -0.800000E-01   12.0110           0
      9540 MEMB     70       DOPC     H11A     HAL2     0.900000E-01   1.00800           0
      9541 MEMB     70       DOPC     H11B     HAL2     0.900000E-01   1.00800           0
      9542 MEMB     70       DOPC     P        PL        1.50000       30.9740           0
      9543 MEMB     70       DOPC     O13      O2L     -0.780000       15.9994           0
      9544 MEMB     70       DOPC     O14      O2L     -0.780000       15.9994           0
      9545 MEMB     70       DOPC     O12      OSLP    -0.570000       15.9994           0
      9546 MEMB     70       DOPC     O11      OSLP    -0.570000       15.9994           0
      9547 MEMB     70       DOPC     C1       CTL2    -0.800000E-01   12.0110           0
      9548 MEMB     70       DOPC     HA       HAL2     0.900000E-01   1.00800           0
      9549 MEMB     70       DOPC     HB       HAL2     0.900000E-01   1.00800           0
      9550 MEMB     70       DOPC     C2       CTL1     0.170000       12.0110           0
      9551 MEMB     70       DOPC     HS       HAL1     0.900000E-01   1.00800           0
      9552 MEMB     70       DOPC     O21      OSL     -0.490000       15.9994           0
      9553 MEMB     70       DOPC     C21      CL       0.900000       12.0110           0
      9554 MEMB     70       DOPC     O22      OBL     -0.630000       15.9994           0
      9555 MEMB     70       DOPC     C22      CTL2    -0.220000       12.0110           0
      9556 MEMB     70       DOPC     H2R      HAL2     0.900000E-01   1.00800           0
      9557 MEMB     70       DOPC     H2S      HAL2     0.900000E-01   1.00800           0
      9558 MEMB     70       DOPC     C3       CTL2     0.800000E-01   12.0110           0
      9559 MEMB     70       DOPC     HX       HAL2     0.900000E-01   1.00800           0
      9560 MEMB     70       DOPC     HY       HAL2     0.900000E-01   1.00800           0
      9561 MEMB     70       DOPC     O31      OSL     -0.490000       15.9994           0
      9562 MEMB     70       DOPC     C31      CL       0.900000       12.0110           0
      9563 MEMB     70       DOPC     O32      OBL     -0.630000       15.9994           0
      9564 MEMB     70       DOPC     C32      CTL2    -0.220000       12.0110           0
      9565 MEMB     70       DOPC     H2X      HAL2     0.900000E-01   1.00800           0
      9566 MEMB     70       DOPC     H2Y      HAL2     0.900000E-01   1.00800           0
      9567 MEMB     70       DOPC     C23      CTL2    -0.180000       12.0110           0
      9568 MEMB     70       DOPC     H3R      HAL2     0.900000E-01   1.00800           0
      9569 MEMB     70       DOPC     H3S      HAL2     0.900000E-01   1.00800           0
      9570 MEMB     70       DOPC     C24      CTL2    -0.180000       12.0110           0
      9571 MEMB     70       DOPC     H4R      HAL2     0.900000E-01   1.00800           0
      9572 MEMB     70       DOPC     H4S      HAL2     0.900000E-01   1.00800           0
      9573 MEMB     70       DOPC     C25      CTL2    -0.180000       12.0110           0
      9574 MEMB     70       DOPC     H5R      HAL2     0.900000E-01   1.00800           0
      9575 MEMB     70       DOPC     H5S      HAL2     0.900000E-01   1.00800           0
      9576 MEMB     70       DOPC     C26      CTL2    -0.180000       12.0110           0
      9577 MEMB     70       DOPC     H6R      HAL2     0.900000E-01   1.00800           0
      9578 MEMB     70       DOPC     H6S      HAL2     0.900000E-01   1.00800           0
      9579 MEMB     70       DOPC     C27      CTL2    -0.180000       12.0110           0
      9580 MEMB     70       DOPC     H7R      HAL2     0.900000E-01   1.00800           0
      9581 MEMB     70       DOPC     H7S      HAL2     0.900000E-01   1.00800           0
      9582 MEMB     70       DOPC     C28      CTL2    -0.180000       12.0110           0
      9583 MEMB     70       DOPC     H8R      HAL2     0.900000E-01   1.00800           0
      9584 MEMB     70       DOPC     H8S      HAL2     0.900000E-01   1.00800           0
      9585 MEMB     70       DOPC     C29      CEL1    -0.150000       12.0110           0
      9586 MEMB     70       DOPC     H9R      HEL1     0.150000       1.00800           0
      9587 MEMB     70       DOPC     C210     CEL1    -0.150000       12.0110           0
      9588 MEMB     70       DOPC     H10R     HEL1     0.150000       1.00800           0
      9589 MEMB     70       DOPC     C211     CTL2    -0.180000       12.0110           0
      9590 MEMB     70       DOPC     H11R     HAL2     0.900000E-01   1.00800           0
      9591 MEMB     70       DOPC     H11S     HAL2     0.900000E-01   1.00800           0
      9592 MEMB     70       DOPC     C212     CTL2    -0.180000       12.0110           0
      9593 MEMB     70       DOPC     H12R     HAL2     0.900000E-01   1.00800           0
      9594 MEMB     70       DOPC     H12S     HAL2     0.900000E-01   1.00800           0
      9595 MEMB     70       DOPC     C213     CTL2    -0.180000       12.0110           0
      9596 MEMB     70       DOPC     H13R     HAL2     0.900000E-01   1.00800           0
      9597 MEMB     70       DOPC     H13S     HAL2     0.900000E-01   1.00800           0
      9598 MEMB     70       DOPC     C214     CTL2    -0.180000       12.0110           0
      9599 MEMB     70       DOPC     H14R     HAL2     0.900000E-01   1.00800           0
      9600 MEMB     70       DOPC     H14S     HAL2     0.900000E-01   1.00800           0
      9601 MEMB     70       DOPC     C215     CTL2    -0.180000       12.0110           0
      9602 MEMB     70       DOPC     H15R     HAL2     0.900000E-01   1.00800           0
      9603 MEMB     70       DOPC     H15S     HAL2     0.900000E-01   1.00800           0
      9604 MEMB     70       DOPC     C216     CTL2    -0.180000       12.0110           0
      9605 MEMB     70       DOPC     H16R     HAL2     0.900000E-01   1.00800           0
      9606 MEMB     70       DOPC     H16S     HAL2     0.900000E-01   1.00800           0
      9607 MEMB     70       DOPC     C217     CTL2    -0.180000       12.0110           0
      9608 MEMB     70       DOPC     H17R     HAL2     0.900000E-01   1.00800           0
      9609 MEMB     70       DOPC     H17S     HAL2     0.900000E-01   1.00800           0
      9610 MEMB     70       DOPC     C218     CTL3    -0.270000       12.0110           0
      9611 MEMB     70       DOPC     H18R     HAL3     0.900000E-01   1.00800           0
      9612 MEMB     70       DOPC     H18S     HAL3     0.900000E-01   1.00800           0
      9613 MEMB     70       DOPC     H18T     HAL3     0.900000E-01   1.00800           0
      9614 MEMB     70       DOPC     C33      CTL2    -0.180000       12.0110           0
      9615 MEMB     70       DOPC     H3X      HAL2     0.900000E-01   1.00800           0
      9616 MEMB     70       DOPC     H3Y      HAL2     0.900000E-01   1.00800           0
      9617 MEMB     70       DOPC     C34      CTL2    -0.180000       12.0110           0
      9618 MEMB     70       DOPC     H4X      HAL2     0.900000E-01   1.00800           0
      9619 MEMB     70       DOPC     H4Y      HAL2     0.900000E-01   1.00800           0
      9620 MEMB     70       DOPC     C35      CTL2    -0.180000       12.0110           0
      9621 MEMB     70       DOPC     H5X      HAL2     0.900000E-01   1.00800           0
      9622 MEMB     70       DOPC     H5Y      HAL2     0.900000E-01   1.00800           0
      9623 MEMB     70       DOPC     C36      CTL2    -0.180000       12.0110           0
      9624 MEMB     70       DOPC     H6X      HAL2     0.900000E-01   1.00800           0
      9625 MEMB     70       DOPC     H6Y      HAL2     0.900000E-01   1.00800           0
      9626 MEMB     70       DOPC     C37      CTL2    -0.180000       12.0110           0
      9627 MEMB     70       DOPC     H7X      HAL2     0.900000E-01   1.00800           0
      9628 MEMB     70       DOPC     H7Y      HAL2     0.900000E-01   1.00800           0
      9629 MEMB     70       DOPC     C38      CTL2    -0.180000       12.0110           0
      9630 MEMB     70       DOPC     H8X      HAL2     0.900000E-01   1.00800           0
      9631 MEMB     70       DOPC     H8Y      HAL2     0.900000E-01   1.00800           0
      9632 MEMB     70       DOPC     C39      CEL1    -0.150000       12.0110           0
      9633 MEMB     70       DOPC     H9X      HEL1     0.150000       1.00800           0
      9634 MEMB     70       DOPC     C310     CEL1    -0.150000       12.0110           0
      9635 MEMB     70       DOPC     H10X     HEL1     0.150000       1.00800           0
      9636 MEMB     70       DOPC     C311     CTL2    -0.180000       12.0110           0
      9637 MEMB     70       DOPC     H11X     HAL2     0.900000E-01   1.00800           0
      9638 MEMB     70       DOPC     H11Y     HAL2     0.900000E-01   1.00800           0
      9639 MEMB     70       DOPC     C312     CTL2    -0.180000       12.0110           0
      9640 MEMB     70       DOPC     H12X     HAL2     0.900000E-01   1.00800           0
      9641 MEMB     70       DOPC     H12Y     HAL2     0.900000E-01   1.00800           0
      9642 MEMB     70       DOPC     C313     CTL2    -0.180000       12.0110           0
      9643 MEMB     70       DOPC     H13X     HAL2     0.900000E-01   1.00800           0
      9644 MEMB     70       DOPC     H13Y     HAL2     0.900000E-01   1.00800           0
      9645 MEMB     70       DOPC     C314     CTL2    -0.180000       12.0110           0
      9646 MEMB     70       DOPC     H14X     HAL2     0.900000E-01   1.00800           0
      9647 MEMB     70       DOPC     H14Y     HAL2     0.900000E-01   1.00800           0
      9648 MEMB     70       DOPC     C315     CTL2    -0.180000       12.0110           0
      9649 MEMB     70       DOPC     H15X     HAL2     0.900000E-01   1.00800           0
      9650 MEMB     70       DOPC     H15Y     HAL2     0.900000E-01   1.00800           0
      9651 MEMB     70       DOPC     C316     CTL2    -0.180000       12.0110           0
      9652 MEMB     70       DOPC     H16X     HAL2     0.900000E-01   1.00800           0
      9653 MEMB     70       DOPC     H16Y     HAL2     0.900000E-01   1.00800           0
      9654 MEMB     70       DOPC     C317     CTL2    -0.180000       12.0110           0
      9655 MEMB     70       DOPC     H17X     HAL2     0.900000E-01   1.00800           0
      9656 MEMB     70       DOPC     H17Y     HAL2     0.900000E-01   1.00800           0
      9657 MEMB     70       DOPC     C318     CTL3    -0.270000       12.0110           0
      9658 MEMB     70       DOPC     H18X     HAL3     0.900000E-01   1.00800           0
      9659 MEMB     70       DOPC     H18Y     HAL3     0.900000E-01   1.00800           0
      9660 MEMB     70       DOPC     H18Z     HAL3     0.900000E-01   1.00800           0
      9661 MEMB     71       DOPC     N        NTL     -0.600000       14.0070           0
      9662 MEMB     71       DOPC     C12      CTL2    -0.100000       12.0110           0
      9663 MEMB     71       DOPC     H12A     HL       0.250000       1.00800           0
      9664 MEMB     71       DOPC     H12B     HL       0.250000       1.00800           0
      9665 MEMB     71       DOPC     C13      CTL5    -0.350000       12.0110           0
      9666 MEMB     71       DOPC     H13A     HL       0.250000       1.00800           0
      9667 MEMB     71       DOPC     H13B     HL       0.250000       1.00800           0
      9668 MEMB     71       DOPC     H13C     HL       0.250000       1.00800           0
      9669 MEMB     71       DOPC     C14      CTL5    -0.350000       12.0110           0
      9670 MEMB     71       DOPC     H14A     HL       0.250000       1.00800           0
      9671 MEMB     71       DOPC     H14B     HL       0.250000       1.00800           0
      9672 MEMB     71       DOPC     H14C     HL       0.250000       1.00800           0
      9673 MEMB     71       DOPC     C15      CTL5    -0.350000       12.0110           0
      9674 MEMB     71       DOPC     H15A     HL       0.250000       1.00800           0
      9675 MEMB     71       DOPC     H15B     HL       0.250000       1.00800           0
      9676 MEMB     71       DOPC     H15C     HL       0.250000       1.00800           0
      9677 MEMB     71       DOPC     C11      CTL2    -0.800000E-01   12.0110           0
      9678 MEMB     71       DOPC     H11A     HAL2     0.900000E-01   1.00800           0
      9679 MEMB     71       DOPC     H11B     HAL2     0.900000E-01   1.00800           0
      9680 MEMB     71       DOPC     P        PL        1.50000       30.9740           0
      9681 MEMB     71       DOPC     O13      O2L     -0.780000       15.9994           0
      9682 MEMB     71       DOPC     O14      O2L     -0.780000       15.9994           0
      9683 MEMB     71       DOPC     O12      OSLP    -0.570000       15.9994           0
      9684 MEMB     71       DOPC     O11      OSLP    -0.570000       15.9994           0
      9685 MEMB     71       DOPC     C1       CTL2    -0.800000E-01   12.0110           0
      9686 MEMB     71       DOPC     HA       HAL2     0.900000E-01   1.00800           0
      9687 MEMB     71       DOPC     HB       HAL2     0.900000E-01   1.00800           0
      9688 MEMB     71       DOPC     C2       CTL1     0.170000       12.0110           0
      9689 MEMB     71       DOPC     HS       HAL1     0.900000E-01   1.00800           0
      9690 MEMB     71       DOPC     O21      OSL     -0.490000       15.9994           0
      9691 MEMB     71       DOPC     C21      CL       0.900000       12.0110           0
      9692 MEMB     71       DOPC     O22      OBL     -0.630000       15.9994           0
      9693 MEMB     71       DOPC     C22      CTL2    -0.220000       12.0110           0
      9694 MEMB     71       DOPC     H2R      HAL2     0.900000E-01   1.00800           0
      9695 MEMB     71       DOPC     H2S      HAL2     0.900000E-01   1.00800           0
      9696 MEMB     71       DOPC     C3       CTL2     0.800000E-01   12.0110           0
      9697 MEMB     71       DOPC     HX       HAL2     0.900000E-01   1.00800           0
      9698 MEMB     71       DOPC     HY       HAL2     0.900000E-01   1.00800           0
      9699 MEMB     71       DOPC     O31      OSL     -0.490000       15.9994           0
      9700 MEMB     71       DOPC     C31      CL       0.900000       12.0110           0
      9701 MEMB     71       DOPC     O32      OBL     -0.630000       15.9994           0
      9702 MEMB     71       DOPC     C32      CTL2    -0.220000       12.0110           0
      9703 MEMB     71       DOPC     H2X      HAL2     0.900000E-01   1.00800           0
      9704 MEMB     71       DOPC     H2Y      HAL2     0.900000E-01   1.00800           0
      9705 MEMB     71       DOPC     C23      CTL2    -0.180000       12.0110           0
      9706 MEMB     71       DOPC     H3R      HAL2     0.900000E-01   1.00800           0
      9707 MEMB     71       DOPC     H3S      HAL2     0.900000E-01   1.00800           0
      9708 MEMB     71       DOPC     C24      CTL2    -0.180000       12.0110           0
      9709 MEMB     71       DOPC     H4R      HAL2     0.900000E-01   1.00800           0
      9710 MEMB     71       DOPC     H4S      HAL2     0.900000E-01   1.00800           0
      9711 MEMB     71       DOPC     C25      CTL2    -0.180000       12.0110           0
      9712 MEMB     71       DOPC     H5R      HAL2     0.900000E-01   1.00800           0
      9713 MEMB     71       DOPC     H5S      HAL2     0.900000E-01   1.00800           0
      9714 MEMB     71       DOPC     C26      CTL2    -0.180000       12.0110           0
      9715 MEMB     71       DOPC     H6R      HAL2     0.900000E-01   1.00800           0
      9716 MEMB     71       DOPC     H6S      HAL2     0.900000E-01   1.00800           0
      9717 MEMB     71       DOPC     C27      CTL2    -0.180000       12.0110           0
      9718 MEMB     71       DOPC     H7R      HAL2     0.900000E-01   1.00800           0
      9719 MEMB     71       DOPC     H7S      HAL2     0.900000E-01   1.00800           0
      9720 MEMB     71       DOPC     C28      CTL2    -0.180000       12.0110           0
      9721 MEMB     71       DOPC     H8R      HAL2     0.900000E-01   1.00800           0
      9722 MEMB     71       DOPC     H8S      HAL2     0.900000E-01   1.00800           0
      9723 MEMB     71       DOPC     C29      CEL1    -0.150000       12.0110           0
      9724 MEMB     71       DOPC     H9R      HEL1     0.150000       1.00800           0
      9725 MEMB     71       DOPC     C210     CEL1    -0.150000       12.0110           0
      9726 MEMB     71       DOPC     H10R     HEL1     0.150000       1.00800           0
      9727 MEMB     71       DOPC     C211     CTL2    -0.180000       12.0110           0
      9728 MEMB     71       DOPC     H11R     HAL2     0.900000E-01   1.00800           0
      9729 MEMB     71       DOPC     H11S     HAL2     0.900000E-01   1.00800           0
      9730 MEMB     71       DOPC     C212     CTL2    -0.180000       12.0110           0
      9731 MEMB     71       DOPC     H12R     HAL2     0.900000E-01   1.00800           0
      9732 MEMB     71       DOPC     H12S     HAL2     0.900000E-01   1.00800           0
      9733 MEMB     71       DOPC     C213     CTL2    -0.180000       12.0110           0
      9734 MEMB     71       DOPC     H13R     HAL2     0.900000E-01   1.00800           0
      9735 MEMB     71       DOPC     H13S     HAL2     0.900000E-01   1.00800           0
      9736 MEMB     71       DOPC     C214     CTL2    -0.180000       12.0110           0
      9737 MEMB     71       DOPC     H14R     HAL2     0.900000E-01   1.00800           0
      9738 MEMB     71       DOPC     H14S     HAL2     0.900000E-01   1.00800           0
      9739 MEMB     71       DOPC     C215     CTL2    -0.180000       12.0110           0
      9740 MEMB     71       DOPC     H15R     HAL2     0.900000E-01   1.00800           0
      9741 MEMB     71       DOPC     H15S     HAL2     0.900000E-01   1.00800           0
      9742 MEMB     71       DOPC     C216     CTL2    -0.180000       12.0110           0
      9743 MEMB     71       DOPC     H16R     HAL2     0.900000E-01   1.00800           0
      9744 MEMB     71       DOPC     H16S     HAL2     0.900000E-01   1.00800           0
      9745 MEMB     71       DOPC     C217     CTL2    -0.180000       12.0110           0
      9746 MEMB     71       DOPC     H17R     HAL2     0.900000E-01   1.00800           0
      9747 MEMB     71       DOPC     H17S     HAL2     0.900000E-01   1.00800           0
      9748 MEMB     71       DOPC     C218     CTL3    -0.270000       12.0110           0
      9749 MEMB     71       DOPC     H18R     HAL3     0.900000E-01   1.00800           0
      9750 MEMB     71       DOPC     H18S     HAL3     0.900000E-01   1.00800           0
      9751 MEMB     71       DOPC     H18T     HAL3     0.900000E-01   1.00800           0
      9752 MEMB     71       DOPC     C33      CTL2    -0.180000       12.0110           0
      9753 MEMB     71       DOPC     H3X      HAL2     0.900000E-01   1.00800           0
      9754 MEMB     71       DOPC     H3Y      HAL2     0.900000E-01   1.00800           0
      9755 MEMB     71       DOPC     C34      CTL2    -0.180000       12.0110           0
      9756 MEMB     71       DOPC     H4X      HAL2     0.900000E-01   1.00800           0
      9757 MEMB     71       DOPC     H4Y      HAL2     0.900000E-01   1.00800           0
      9758 MEMB     71       DOPC     C35      CTL2    -0.180000       12.0110           0
      9759 MEMB     71       DOPC     H5X      HAL2     0.900000E-01   1.00800           0
      9760 MEMB     71       DOPC     H5Y      HAL2     0.900000E-01   1.00800           0
      9761 MEMB     71       DOPC     C36      CTL2    -0.180000       12.0110           0
      9762 MEMB     71       DOPC     H6X      HAL2     0.900000E-01   1.00800           0
      9763 MEMB     71       DOPC     H6Y      HAL2     0.900000E-01   1.00800           0
      9764 MEMB     71       DOPC     C37      CTL2    -0.180000       12.0110           0
      9765 MEMB     71       DOPC     H7X      HAL2     0.900000E-01   1.00800           0
      9766 MEMB     71       DOPC     H7Y      HAL2     0.900000E-01   1.00800           0
      9767 MEMB     71       DOPC     C38      CTL2    -0.180000       12.0110           0
      9768 MEMB     71       DOPC     H8X      HAL2     0.900000E-01   1.00800           0
      9769 MEMB     71       DOPC     H8Y      HAL2     0.900000E-01   1.00800           0
      9770 MEMB     71       DOPC     C39      CEL1    -0.150000       12.0110           0
      9771 MEMB     71       DOPC     H9X      HEL1     0.150000       1.00800           0
      9772 MEMB     71       DOPC     C310     CEL1    -0.150000       12.0110           0
      9773 MEMB     71       DOPC     H10X     HEL1     0.150000       1.00800           0
      9774 MEMB     71       DOPC     C311     CTL2    -0.180000       12.0110           0
      9775 MEMB     71       DOPC     H11X     HAL2     0.900000E-01   1.00800           0
      9776 MEMB     71       DOPC     H11Y     HAL2     0.900000E-01   1.00800           0
      9777 MEMB     71       DOPC     C312     CTL2    -0.180000       12.0110           0
      9778 MEMB     71       DOPC     H12X     HAL2     0.900000E-01   1.00800           0
      9779 MEMB     71       DOPC     H12Y     HAL2     0.900000E-01   1.00800           0
      9780 MEMB     71       DOPC     C313     CTL2    -0.180000       12.0110           0
      9781 MEMB     71       DOPC     H13X     HAL2     0.900000E-01   1.00800           0
      9782 MEMB     71       DOPC     H13Y     HAL2     0.900000E-01   1.00800           0
      9783 MEMB     71       DOPC     C314     CTL2    -0.180000       12.0110           0
      9784 MEMB     71       DOPC     H14X     HAL2     0.900000E-01   1.00800           0
      9785 MEMB     71       DOPC     H14Y     HAL2     0.900000E-01   1.00800           0
      9786 MEMB     71       DOPC     C315     CTL2    -0.180000       12.0110           0
      9787 MEMB     71       DOPC     H15X     HAL2     0.900000E-01   1.00800           0
      9788 MEMB     71       DOPC     H15Y     HAL2     0.900000E-01   1.00800           0
      9789 MEMB     71       DOPC     C316     CTL2    -0.180000       12.0110           0
      9790 MEMB     71       DOPC     H16X     HAL2     0.900000E-01   1.00800           0
      9791 MEMB     71       DOPC     H16Y     HAL2     0.900000E-01   1.00800           0
      9792 MEMB     71       DOPC     C317     CTL2    -0.180000       12.0110           0
      9793 MEMB     71       DOPC     H17X     HAL2     0.900000E-01   1.00800           0
      9794 MEMB     71       DOPC     H17Y     HAL2     0.900000E-01   1.00800           0
      9795 MEMB     71       DOPC     C318     CTL3    -0.270000       12.0110           0
      9796 MEMB     71       DOPC     H18X     HAL3     0.900000E-01   1.00800           0
      9797 MEMB     71       DOPC     H18Y     HAL3     0.900000E-01   1.00800           0
      9798 MEMB     71       DOPC     H18Z     HAL3     0.900000E-01   1.00800           0
      9799 MEMB     72       DOPC     N        NTL     -0.600000       14.0070           0
      9800 MEMB     72       DOPC     C12      CTL2    -0.100000       12.0110           0
      9801 MEMB     72       DOPC     H12A     HL       0.250000       1.00800           0
      9802 MEMB     72       DOPC     H12B     HL       0.250000       1.00800           0
      9803 MEMB     72       DOPC     C13      CTL5    -0.350000       12.0110           0
      9804 MEMB     72       DOPC     H13A     HL       0.250000       1.00800           0
      9805 MEMB     72       DOPC     H13B     HL       0.250000       1.00800           0
      9806 MEMB     72       DOPC     H13C     HL       0.250000       1.00800           0
      9807 MEMB     72       DOPC     C14      CTL5    -0.350000       12.0110           0
      9808 MEMB     72       DOPC     H14A     HL       0.250000       1.00800           0
      9809 MEMB     72       DOPC     H14B     HL       0.250000       1.00800           0
      9810 MEMB     72       DOPC     H14C     HL       0.250000       1.00800           0
      9811 MEMB     72       DOPC     C15      CTL5    -0.350000       12.0110           0
      9812 MEMB     72       DOPC     H15A     HL       0.250000       1.00800           0
      9813 MEMB     72       DOPC     H15B     HL       0.250000       1.00800           0
      9814 MEMB     72       DOPC     H15C     HL       0.250000       1.00800           0
      9815 MEMB     72       DOPC     C11      CTL2    -0.800000E-01   12.0110           0
      9816 MEMB     72       DOPC     H11A     HAL2     0.900000E-01   1.00800           0
      9817 MEMB     72       DOPC     H11B     HAL2     0.900000E-01   1.00800           0
      9818 MEMB     72       DOPC     P        PL        1.50000       30.9740           0
      9819 MEMB     72       DOPC     O13      O2L     -0.780000       15.9994           0
      9820 MEMB     72       DOPC     O14      O2L     -0.780000       15.9994           0
      9821 MEMB     72       DOPC     O12      OSLP    -0.570000       15.9994           0
      9822 MEMB     72       DOPC     O11      OSLP    -0.570000       15.9994           0
      9823 MEMB     72       DOPC     C1       CTL2    -0.800000E-01   12.0110           0
      9824 MEMB     72       DOPC     HA       HAL2     0.900000E-01   1.00800           0
      9825 MEMB     72       DOPC     HB       HAL2     0.900000E-01   1.00800           0
      9826 MEMB     72       DOPC     C2       CTL1     0.170000       12.0110           0
      9827 MEMB     72       DOPC     HS       HAL1     0.900000E-01   1.00800           0
      9828 MEMB     72       DOPC     O21      OSL     -0.490000       15.9994           0
      9829 MEMB     72       DOPC     C21      CL       0.900000       12.0110           0
      9830 MEMB     72       DOPC     O22      OBL     -0.630000       15.9994           0
      9831 MEMB     72       DOPC     C22      CTL2    -0.220000       12.0110           0
      9832 MEMB     72       DOPC     H2R      HAL2     0.900000E-01   1.00800           0
      9833 MEMB     72       DOPC     H2S      HAL2     0.900000E-01   1.00800           0
      9834 MEMB     72       DOPC     C3       CTL2     0.800000E-01   12.0110           0
      9835 MEMB     72       DOPC     HX       HAL2     0.900000E-01   1.00800           0
      9836 MEMB     72       DOPC     HY       HAL2     0.900000E-01   1.00800           0
      9837 MEMB     72       DOPC     O31      OSL     -0.490000       15.9994           0
      9838 MEMB     72       DOPC     C31      CL       0.900000       12.0110           0
      9839 MEMB     72       DOPC     O32      OBL     -0.630000       15.9994           0
      9840 MEMB     72       DOPC     C32      CTL2    -0.220000       12.0110           0
      9841 MEMB     72       DOPC     H2X      HAL2     0.900000E-01   1.00800           0
      9842 MEMB     72       DOPC     H2Y      HAL2     0.900000E-01   1.00800           0
      9843 MEMB     72       DOPC     C23      CTL2    -0.180000       12.0110           0
      9844 MEMB     72       DOPC     H3R      HAL2     0.900000E-01   1.00800           0
      9845 MEMB     72       DOPC     H3S      HAL2     0.900000E-01   1.00800           0
      9846 MEMB     72       DOPC     C24      CTL2    -0.180000       12.0110           0
      9847 MEMB     72       DOPC     H4R      HAL2     0.900000E-01   1.00800           0
      9848 MEMB     72       DOPC     H4S      HAL2     0.900000E-01   1.00800           0
      9849 MEMB     72       DOPC     C25      CTL2    -0.180000       12.0110           0
      9850 MEMB     72       DOPC     H5R      HAL2     0.900000E-01   1.00800           0
      9851 MEMB     72       DOPC     H5S      HAL2     0.900000E-01   1.00800           0
      9852 MEMB     72       DOPC     C26      CTL2    -0.180000       12.0110           0
      9853 MEMB     72       DOPC     H6R      HAL2     0.900000E-01   1.00800           0
      9854 MEMB     72       DOPC     H6S      HAL2     0.900000E-01   1.00800           0
      9855 MEMB     72       DOPC     C27      CTL2    -0.180000       12.0110           0
      9856 MEMB     72       DOPC     H7R      HAL2     0.900000E-01   1.00800           0
      9857 MEMB     72       DOPC     H7S      HAL2     0.900000E-01   1.00800           0
      9858 MEMB     72       DOPC     C28      CTL2    -0.180000       12.0110           0
      9859 MEMB     72       DOPC     H8R      HAL2     0.900000E-01   1.00800           0
      9860 MEMB     72       DOPC     H8S      HAL2     0.900000E-01   1.00800           0
      9861 MEMB     72       DOPC     C29      CEL1    -0.150000       12.0110           0
      9862 MEMB     72       DOPC     H9R      HEL1     0.150000       1.00800           0
      9863 MEMB     72       DOPC     C210     CEL1    -0.150000       12.0110           0
      9864 MEMB     72       DOPC     H10R     HEL1     0.150000       1.00800           0
      9865 MEMB     72       DOPC     C211     CTL2    -0.180000       12.0110           0
      9866 MEMB     72       DOPC     H11R     HAL2     0.900000E-01   1.00800           0
      9867 MEMB     72       DOPC     H11S     HAL2     0.900000E-01   1.00800           0
      9868 MEMB     72       DOPC     C212     CTL2    -0.180000       12.0110           0
      9869 MEMB     72       DOPC     H12R     HAL2     0.900000E-01   1.00800           0
      9870 MEMB     72       DOPC     H12S     HAL2     0.900000E-01   1.00800           0
      9871 MEMB     72       DOPC     C213     CTL2    -0.180000       12.0110           0
      9872 MEMB     72       DOPC     H13R     HAL2     0.900000E-01   1.00800           0
      9873 MEMB     72       DOPC     H13S     HAL2     0.900000E-01   1.00800           0
      9874 MEMB     72       DOPC     C214     CTL2    -0.180000       12.0110           0
      9875 MEMB     72       DOPC     H14R     HAL2     0.900000E-01   1.00800           0
      9876 MEMB     72       DOPC     H14S     HAL2     0.900000E-01   1.00800           0
      9877 MEMB     72       DOPC     C215     CTL2    -0.180000       12.0110           0
      9878 MEMB     72       DOPC     H15R     HAL2     0.900000E-01   1.00800           0
      9879 MEMB     72       DOPC     H15S     HAL2     0.900000E-01   1.00800           0
      9880 MEMB     72       DOPC     C216     CTL2    -0.180000       12.0110           0
      9881 MEMB     72       DOPC     H16R     HAL2     0.900000E-01   1.00800           0
      9882 MEMB     72       DOPC     H16S     HAL2     0.900000E-01   1.00800           0
      9883 MEMB     72       DOPC     C217     CTL2    -0.180000       12.0110           0
      9884 MEMB     72       DOPC     H17R     HAL2     0.900000E-01   1.00800           0
      9885 MEMB     72       DOPC     H17S     HAL2     0.900000E-01   1.00800           0
      9886 MEMB     72       DOPC     C218     CTL3    -0.270000       12.0110           0
      9887 MEMB     72       DOPC     H18R     HAL3     0.900000E-01   1.00800           0
      9888 MEMB     72       DOPC     H18S     HAL3     0.900000E-01   1.00800           0
      9889 MEMB     72       DOPC     H18T     HAL3     0.900000E-01   1.00800           0
      9890 MEMB     72       DOPC     C33      CTL2    -0.180000       12.0110           0
      9891 MEMB     72       DOPC     H3X      HAL2     0.900000E-01   1.00800           0
      9892 MEMB     72       DOPC     H3Y      HAL2     0.900000E-01   1.00800           0
      9893 MEMB     72       DOPC     C34      CTL2    -0.180000       12.0110           0
      9894 MEMB     72       DOPC     H4X      HAL2     0.900000E-01   1.00800           0
      9895 MEMB     72       DOPC     H4Y      HAL2     0.900000E-01   1.00800           0
      9896 MEMB     72       DOPC     C35      CTL2    -0.180000       12.0110           0
      9897 MEMB     72       DOPC     H5X      HAL2     0.900000E-01   1.00800           0
      9898 MEMB     72       DOPC     H5Y      HAL2     0.900000E-01   1.00800           0
      9899 MEMB     72       DOPC     C36      CTL2    -0.180000       12.0110           0
      9900 MEMB     72       DOPC     H6X      HAL2     0.900000E-01   1.00800           0
      9901 MEMB     72       DOPC     H6Y      HAL2     0.900000E-01   1.00800           0
      9902 MEMB     72       DOPC     C37      CTL2    -0.180000       12.0110           0
      9903 MEMB     72       DOPC     H7X      HAL2     0.900000E-01   1.00800           0
      9904 MEMB     72       DOPC     H7Y      HAL2     0.900000E-01   1.00800           0
      9905 MEMB     72       DOPC     C38      CTL2    -0.180000       12.0110           0
      9906 MEMB     72       DOPC     H8X      HAL2     0.900000E-01   1.00800           0
      9907 MEMB     72       DOPC     H8Y      HAL2     0.900000E-01   1.00800           0
      9908 MEMB     72       DOPC     C39      CEL1    -0.150000       12.0110           0
      9909 MEMB     72       DOPC     H9X      HEL1     0.150000       1.00800           0
      9910 MEMB     72       DOPC     C310     CEL1    -0.150000       12.0110           0
      9911 MEMB     72       DOPC     H10X     HEL1     0.150000       1.00800           0
      9912 MEMB     72       DOPC     C311     CTL2    -0.180000       12.0110           0
      9913 MEMB     72       DOPC     H11X     HAL2     0.900000E-01   1.00800           0
      9914 MEMB     72       DOPC     H11Y     HAL2     0.900000E-01   1.00800           0
      9915 MEMB     72       DOPC     C312     CTL2    -0.180000       12.0110           0
      9916 MEMB     72       DOPC     H12X     HAL2     0.900000E-01   1.00800           0
      9917 MEMB     72       DOPC     H12Y     HAL2     0.900000E-01   1.00800           0
      9918 MEMB     72       DOPC     C313     CTL2    -0.180000       12.0110           0
      9919 MEMB     72       DOPC     H13X     HAL2     0.900000E-01   1.00800           0
      9920 MEMB     72       DOPC     H13Y     HAL2     0.900000E-01   1.00800           0
      9921 MEMB     72       DOPC     C314     CTL2    -0.180000       12.0110           0
      9922 MEMB     72       DOPC     H14X     HAL2     0.900000E-01   1.00800           0
      9923 MEMB     72       DOPC     H14Y     HAL2     0.900000E-01   1.00800           0
      9924 MEMB     72       DOPC     C315     CTL2    -0.180000       12.0110           0
      9925 MEMB     72       DOPC     H15X     HAL2     0.900000E-01   1.00800           0
      9926 MEMB     72       DOPC     H15Y     HAL2     0.900000E-01   1.00800           0
      9927 MEMB     72       DOPC     C316     CTL2    -0.180000       12.0110           0
      9928 MEMB     72       DOPC     H16X     HAL2     0.900000E-01   1.00800           0
      9929 MEMB     72       DOPC     H16Y     HAL2     0.900000E-01   1.00800           0
      9930 MEMB     72       DOPC     C317     CTL2    -0.180000       12.0110           0
      9931 MEMB     72       DOPC     H17X     HAL2     0.900000E-01   1.00800           0
      9932 MEMB     72       DOPC     H17Y     HAL2     0.900000E-01   1.00800           0
      9933 MEMB     72       DOPC     C318     CTL3    -0.270000       12.0110           0
      9934 MEMB     72       DOPC     H18X     HAL3     0.900000E-01   1.00800           0
      9935 MEMB     72       DOPC     H18Y     HAL3     0.900000E-01   1.00800           0
      9936 MEMB     72       DOPC     H18Z     HAL3     0.900000E-01   1.00800           0
      9937 MEMB     73       DOPC     N        NTL     -0.600000       14.0070           0
      9938 MEMB     73       DOPC     C12      CTL2    -0.100000       12.0110           0
      9939 MEMB     73       DOPC     H12A     HL       0.250000       1.00800           0
      9940 MEMB     73       DOPC     H12B     HL       0.250000       1.00800           0
      9941 MEMB     73       DOPC     C13      CTL5    -0.350000       12.0110           0
      9942 MEMB     73       DOPC     H13A     HL       0.250000       1.00800           0
      9943 MEMB     73       DOPC     H13B     HL       0.250000       1.00800           0
      9944 MEMB     73       DOPC     H13C     HL       0.250000       1.00800           0
      9945 MEMB     73       DOPC     C14      CTL5    -0.350000       12.0110           0
      9946 MEMB     73       DOPC     H14A     HL       0.250000       1.00800           0
      9947 MEMB     73       DOPC     H14B     HL       0.250000       1.00800           0
      9948 MEMB     73       DOPC     H14C     HL       0.250000       1.00800           0
      9949 MEMB     73       DOPC     C15      CTL5    -0.350000       12.0110           0
      9950 MEMB     73       DOPC     H15A     HL       0.250000       1.00800           0
      9951 MEMB     73       DOPC     H15B     HL       0.250000       1.00800           0
      9952 MEMB     73       DOPC     H15C     HL       0.250000       1.00800           0
      9953 MEMB     73       DOPC     C11      CTL2    -0.800000E-01   12.0110           0
      9954 MEMB     73       DOPC     H11A     HAL2     0.900000E-01   1.00800           0
      9955 MEMB     73       DOPC     H11B     HAL2     0.900000E-01   1.00800           0
      9956 MEMB     73       DOPC     P        PL        1.50000       30.9740           0
      9957 MEMB     73       DOPC     O13      O2L     -0.780000       15.9994           0
      9958 MEMB     73       DOPC     O14      O2L     -0.780000       15.9994           0
      9959 MEMB     73       DOPC     O12      OSLP    -0.570000       15.9994           0
      9960 MEMB     73       DOPC     O11      OSLP    -0.570000       15.9994           0
      9961 MEMB     73       DOPC     C1       CTL2    -0.800000E-01   12.0110           0
      9962 MEMB     73       DOPC     HA       HAL2     0.900000E-01   1.00800           0
      9963 MEMB     73       DOPC     HB       HAL2     0.900000E-01   1.00800           0
      9964 MEMB     73       DOPC     C2       CTL1     0.170000       12.0110           0
      9965 MEMB     73       DOPC     HS       HAL1     0.900000E-01   1.00800           0
      9966 MEMB     73       DOPC     O21      OSL     -0.490000       15.9994           0
      9967 MEMB     73       DOPC     C21      CL       0.900000       12.0110           0
      9968 MEMB     73       DOPC     O22      OBL     -0.630000       15.9994           0
      9969 MEMB     73       DOPC     C22      CTL2    -0.220000       12.0110           0
      9970 MEMB     73       DOPC     H2R      HAL2     0.900000E-01   1.00800           0
      9971 MEMB     73       DOPC     H2S      HAL2     0.900000E-01   1.00800           0
      9972 MEMB     73       DOPC     C3       CTL2     0.800000E-01   12.0110           0
      9973 MEMB     73       DOPC     HX       HAL2     0.900000E-01   1.00800           0
      9974 MEMB     73       DOPC     HY       HAL2     0.900000E-01   1.00800           0
      9975 MEMB     73       DOPC     O31      OSL     -0.490000       15.9994           0
      9976 MEMB     73       DOPC     C31      CL       0.900000       12.0110           0
      9977 MEMB     73       DOPC     O32      OBL     -0.630000       15.9994           0
      9978 MEMB     73       DOPC     C32      CTL2    -0.220000       12.0110           0
      9979 MEMB     73       DOPC     H2X      HAL2     0.900000E-01   1.00800           0
      9980 MEMB     73       DOPC     H2Y      HAL2     0.900000E-01   1.00800           0
      9981 MEMB     73       DOPC     C23      CTL2    -0.180000       12.0110           0
      9982 MEMB     73       DOPC     H3R      HAL2     0.900000E-01   1.00800           0
      9983 MEMB     73       DOPC     H3S      HAL2     0.900000E-01   1.00800           0
      9984 MEMB     73       DOPC     C24      CTL2    -0.180000       12.0110           0
      9985 MEMB     73       DOPC     H4R      HAL2     0.900000E-01   1.00800           0
      9986 MEMB     73       DOPC     H4S      HAL2     0.900000E-01   1.00800           0
      9987 MEMB     73       DOPC     C25      CTL2    -0.180000       12.0110           0
      9988 MEMB     73       DOPC     H5R      HAL2     0.900000E-01   1.00800           0
      9989 MEMB     73       DOPC     H5S      HAL2     0.900000E-01   1.00800           0
      9990 MEMB     73       DOPC     C26      CTL2    -0.180000       12.0110           0
      9991 MEMB     73       DOPC     H6R      HAL2     0.900000E-01   1.00800           0
      9992 MEMB     73       DOPC     H6S      HAL2     0.900000E-01   1.00800           0
      9993 MEMB     73       DOPC     C27      CTL2    -0.180000       12.0110           0
      9994 MEMB     73       DOPC     H7R      HAL2     0.900000E-01   1.00800           0
      9995 MEMB     73       DOPC     H7S      HAL2     0.900000E-01   1.00800           0
      9996 MEMB     73       DOPC     C28      CTL2    -0.180000       12.0110           0
      9997 MEMB     73       DOPC     H8R      HAL2     0.900000E-01   1.00800           0
      9998 MEMB     73       DOPC     H8S      HAL2     0.900000E-01   1.00800           0
      9999 MEMB     73       DOPC     C29      CEL1    -0.150000       12.0110           0
     10000 MEMB     73       DOPC     H9R      HEL1     0.150000       1.00800           0
     10001 MEMB     73       DOPC     C210     CEL1    -0.150000       12.0110           0
     10002 MEMB     73       DOPC     H10R     HEL1     0.150000       1.00800           0
     10003 MEMB     73       DOPC     C211     CTL2    -0.180000       12.0110           0
     10004 MEMB     73       DOPC     H11R     HAL2     0.900000E-01   1.00800           0
     10005 MEMB     73       DOPC     H11S     HAL2     0.900000E-01   1.00800           0
     10006 MEMB     73       DOPC     C212     CTL2    -0.180000       12.0110           0
     10007 MEMB     73       DOPC     H12R     HAL2     0.900000E-01   1.00800           0
     10008 MEMB     73       DOPC     H12S     HAL2     0.900000E-01   1.00800           0
     10009 MEMB     73       DOPC     C213     CTL2    -0.180000       12.0110           0
     10010 MEMB     73       DOPC     H13R     HAL2     0.900000E-01   1.00800           0
     10011 MEMB     73       DOPC     H13S     HAL2     0.900000E-01   1.00800           0
     10012 MEMB     73       DOPC     C214     CTL2    -0.180000       12.0110           0
     10013 MEMB     73       DOPC     H14R     HAL2     0.900000E-01   1.00800           0
     10014 MEMB     73       DOPC     H14S     HAL2     0.900000E-01   1.00800           0
     10015 MEMB     73       DOPC     C215     CTL2    -0.180000       12.0110           0
     10016 MEMB     73       DOPC     H15R     HAL2     0.900000E-01   1.00800           0
     10017 MEMB     73       DOPC     H15S     HAL2     0.900000E-01   1.00800           0
     10018 MEMB     73       DOPC     C216     CTL2    -0.180000       12.0110           0
     10019 MEMB     73       DOPC     H16R     HAL2     0.900000E-01   1.00800           0
     10020 MEMB     73       DOPC     H16S     HAL2     0.900000E-01   1.00800           0
     10021 MEMB     73       DOPC     C217     CTL2    -0.180000       12.0110           0
     10022 MEMB     73       DOPC     H17R     HAL2     0.900000E-01   1.00800           0
     10023 MEMB     73       DOPC     H17S     HAL2     0.900000E-01   1.00800           0
     10024 MEMB     73       DOPC     C218     CTL3    -0.270000       12.0110           0
     10025 MEMB     73       DOPC     H18R     HAL3     0.900000E-01   1.00800           0
     10026 MEMB     73       DOPC     H18S     HAL3     0.900000E-01   1.00800           0
     10027 MEMB     73       DOPC     H18T     HAL3     0.900000E-01   1.00800           0
     10028 MEMB     73       DOPC     C33      CTL2    -0.180000       12.0110           0
     10029 MEMB     73       DOPC     H3X      HAL2     0.900000E-01   1.00800           0
     10030 MEMB     73       DOPC     H3Y      HAL2     0.900000E-01   1.00800           0
     10031 MEMB     73       DOPC     C34      CTL2    -0.180000       12.0110           0
     10032 MEMB     73       DOPC     H4X      HAL2     0.900000E-01   1.00800           0
     10033 MEMB     73       DOPC     H4Y      HAL2     0.900000E-01   1.00800           0
     10034 MEMB     73       DOPC     C35      CTL2    -0.180000       12.0110           0
     10035 MEMB     73       DOPC     H5X      HAL2     0.900000E-01   1.00800           0
     10036 MEMB     73       DOPC     H5Y      HAL2     0.900000E-01   1.00800           0
     10037 MEMB     73       DOPC     C36      CTL2    -0.180000       12.0110           0
     10038 MEMB     73       DOPC     H6X      HAL2     0.900000E-01   1.00800           0
     10039 MEMB     73       DOPC     H6Y      HAL2     0.900000E-01   1.00800           0
     10040 MEMB     73       DOPC     C37      CTL2    -0.180000       12.0110           0
     10041 MEMB     73       DOPC     H7X      HAL2     0.900000E-01   1.00800           0
     10042 MEMB     73       DOPC     H7Y      HAL2     0.900000E-01   1.00800           0
     10043 MEMB     73       DOPC     C38      CTL2    -0.180000       12.0110           0
     10044 MEMB     73       DOPC     H8X      HAL2     0.900000E-01   1.00800           0
     10045 MEMB     73       DOPC     H8Y      HAL2     0.900000E-01   1.00800           0
     10046 MEMB     73       DOPC     C39      CEL1    -0.150000       12.0110           0
     10047 MEMB     73       DOPC     H9X      HEL1     0.150000       1.00800           0
     10048 MEMB     73       DOPC     C310     CEL1    -0.150000       12.0110           0
     10049 MEMB     73       DOPC     H10X     HEL1     0.150000       1.00800           0
     10050 MEMB     73       DOPC     C311     CTL2    -0.180000       12.0110           0
     10051 MEMB     73       DOPC     H11X     HAL2     0.900000E-01   1.00800           0
     10052 MEMB     73       DOPC     H11Y     HAL2     0.900000E-01   1.00800           0
     10053 MEMB     73       DOPC     C312     CTL2    -0.180000       12.0110           0
     10054 MEMB     73       DOPC     H12X     HAL2     0.900000E-01   1.00800           0
     10055 MEMB     73       DOPC     H12Y     HAL2     0.900000E-01   1.00800           0
     10056 MEMB     73       DOPC     C313     CTL2    -0.180000       12.0110           0
     10057 MEMB     73       DOPC     H13X     HAL2     0.900000E-01   1.00800           0
     10058 MEMB     73       DOPC     H13Y     HAL2     0.900000E-01   1.00800           0
     10059 MEMB     73       DOPC     C314     CTL2    -0.180000       12.0110           0
     10060 MEMB     73       DOPC     H14X     HAL2     0.900000E-01   1.00800           0
     10061 MEMB     73       DOPC     H14Y     HAL2     0.900000E-01   1.00800           0
     10062 MEMB     73       DOPC     C315     CTL2    -0.180000       12.0110           0
     10063 MEMB     73       DOPC     H15X     HAL2     0.900000E-01   1.00800           0
     10064 MEMB     73       DOPC     H15Y     HAL2     0.900000E-01   1.00800           0
     10065 MEMB     73       DOPC     C316     CTL2    -0.180000       12.0110           0
     10066 MEMB     73       DOPC     H16X     HAL2     0.900000E-01   1.00800           0
     10067 MEMB     73       DOPC     H16Y     HAL2     0.900000E-01   1.00800           0
     10068 MEMB     73       DOPC     C317     CTL2    -0.180000       12.0110           0
     10069 MEMB     73       DOPC     H17X     HAL2     0.900000E-01   1.00800           0
     10070 MEMB     73       DOPC     H17Y     HAL2     0.900000E-01   1.00800           0
     10071 MEMB     73       DOPC     C318     CTL3    -0.270000       12.0110           0
     10072 MEMB     73       DOPC     H18X     HAL3     0.900000E-01   1.00800           0
     10073 MEMB     73       DOPC     H18Y     HAL3     0.900000E-01   1.00800           0
     10074 MEMB     73       DOPC     H18Z     HAL3     0.900000E-01   1.00800           0
     10075 MEMB     74       DOPC     N        NTL     -0.600000       14.0070           0
     10076 MEMB     74       DOPC     C12      CTL2    -0.100000       12.0110           0
     10077 MEMB     74       DOPC     H12A     HL       0.250000       1.00800           0
     10078 MEMB     74       DOPC     H12B     HL       0.250000       1.00800           0
     10079 MEMB     74       DOPC     C13      CTL5    -0.350000       12.0110           0
     10080 MEMB     74       DOPC     H13A     HL       0.250000       1.00800           0
     10081 MEMB     74       DOPC     H13B     HL       0.250000       1.00800           0
     10082 MEMB     74       DOPC     H13C     HL       0.250000       1.00800           0
     10083 MEMB     74       DOPC     C14      CTL5    -0.350000       12.0110           0
     10084 MEMB     74       DOPC     H14A     HL       0.250000       1.00800           0
     10085 MEMB     74       DOPC     H14B     HL       0.250000       1.00800           0
     10086 MEMB     74       DOPC     H14C     HL       0.250000       1.00800           0
     10087 MEMB     74       DOPC     C15      CTL5    -0.350000       12.0110           0
     10088 MEMB     74       DOPC     H15A     HL       0.250000       1.00800           0
     10089 MEMB     74       DOPC     H15B     HL       0.250000       1.00800           0
     10090 MEMB     74       DOPC     H15C     HL       0.250000       1.00800           0
     10091 MEMB     74       DOPC     C11      CTL2    -0.800000E-01   12.0110           0
     10092 MEMB     74       DOPC     H11A     HAL2     0.900000E-01   1.00800           0
     10093 MEMB     74       DOPC     H11B     HAL2     0.900000E-01   1.00800           0
     10094 MEMB     74       DOPC     P        PL        1.50000       30.9740           0
     10095 MEMB     74       DOPC     O13      O2L     -0.780000       15.9994           0
     10096 MEMB     74       DOPC     O14      O2L     -0.780000       15.9994           0
     10097 MEMB     74       DOPC     O12      OSLP    -0.570000       15.9994           0
     10098 MEMB     74       DOPC     O11      OSLP    -0.570000       15.9994           0
     10099 MEMB     74       DOPC     C1       CTL2    -0.800000E-01   12.0110           0
     10100 MEMB     74       DOPC     HA       HAL2     0.900000E-01   1.00800           0
     10101 MEMB     74       DOPC     HB       HAL2     0.900000E-01   1.00800           0
     10102 MEMB     74       DOPC     C2       CTL1     0.170000       12.0110           0
     10103 MEMB     74       DOPC     HS       HAL1     0.900000E-01   1.00800           0
     10104 MEMB     74       DOPC     O21      OSL     -0.490000       15.9994           0
     10105 MEMB     74       DOPC     C21      CL       0.900000       12.0110           0
     10106 MEMB     74       DOPC     O22      OBL     -0.630000       15.9994           0
     10107 MEMB     74       DOPC     C22      CTL2    -0.220000       12.0110           0
     10108 MEMB     74       DOPC     H2R      HAL2     0.900000E-01   1.00800           0
     10109 MEMB     74       DOPC     H2S      HAL2     0.900000E-01   1.00800           0
     10110 MEMB     74       DOPC     C3       CTL2     0.800000E-01   12.0110           0
     10111 MEMB     74       DOPC     HX       HAL2     0.900000E-01   1.00800           0
     10112 MEMB     74       DOPC     HY       HAL2     0.900000E-01   1.00800           0
     10113 MEMB     74       DOPC     O31      OSL     -0.490000       15.9994           0
     10114 MEMB     74       DOPC     C31      CL       0.900000       12.0110           0
     10115 MEMB     74       DOPC     O32      OBL     -0.630000       15.9994           0
     10116 MEMB     74       DOPC     C32      CTL2    -0.220000       12.0110           0
     10117 MEMB     74       DOPC     H2X      HAL2     0.900000E-01   1.00800           0
     10118 MEMB     74       DOPC     H2Y      HAL2     0.900000E-01   1.00800           0
     10119 MEMB     74       DOPC     C23      CTL2    -0.180000       12.0110           0
     10120 MEMB     74       DOPC     H3R      HAL2     0.900000E-01   1.00800           0
     10121 MEMB     74       DOPC     H3S      HAL2     0.900000E-01   1.00800           0
     10122 MEMB     74       DOPC     C24      CTL2    -0.180000       12.0110           0
     10123 MEMB     74       DOPC     H4R      HAL2     0.900000E-01   1.00800           0
     10124 MEMB     74       DOPC     H4S      HAL2     0.900000E-01   1.00800           0
     10125 MEMB     74       DOPC     C25      CTL2    -0.180000       12.0110           0
     10126 MEMB     74       DOPC     H5R      HAL2     0.900000E-01   1.00800           0
     10127 MEMB     74       DOPC     H5S      HAL2     0.900000E-01   1.00800           0
     10128 MEMB     74       DOPC     C26      CTL2    -0.180000       12.0110           0
     10129 MEMB     74       DOPC     H6R      HAL2     0.900000E-01   1.00800           0
     10130 MEMB     74       DOPC     H6S      HAL2     0.900000E-01   1.00800           0
     10131 MEMB     74       DOPC     C27      CTL2    -0.180000       12.0110           0
     10132 MEMB     74       DOPC     H7R      HAL2     0.900000E-01   1.00800           0
     10133 MEMB     74       DOPC     H7S      HAL2     0.900000E-01   1.00800           0
     10134 MEMB     74       DOPC     C28      CTL2    -0.180000       12.0110           0
     10135 MEMB     74       DOPC     H8R      HAL2     0.900000E-01   1.00800           0
     10136 MEMB     74       DOPC     H8S      HAL2     0.900000E-01   1.00800           0
     10137 MEMB     74       DOPC     C29      CEL1    -0.150000       12.0110           0
     10138 MEMB     74       DOPC     H9R      HEL1     0.150000       1.00800           0
     10139 MEMB     74       DOPC     C210     CEL1    -0.150000       12.0110           0
     10140 MEMB     74       DOPC     H10R     HEL1     0.150000       1.00800           0
     10141 MEMB     74       DOPC     C211     CTL2    -0.180000       12.0110           0
     10142 MEMB     74       DOPC     H11R     HAL2     0.900000E-01   1.00800           0
     10143 MEMB     74       DOPC     H11S     HAL2     0.900000E-01   1.00800           0
     10144 MEMB     74       DOPC     C212     CTL2    -0.180000       12.0110           0
     10145 MEMB     74       DOPC     H12R     HAL2     0.900000E-01   1.00800           0
     10146 MEMB     74       DOPC     H12S     HAL2     0.900000E-01   1.00800           0
     10147 MEMB     74       DOPC     C213     CTL2    -0.180000       12.0110           0
     10148 MEMB     74       DOPC     H13R     HAL2     0.900000E-01   1.00800           0
     10149 MEMB     74       DOPC     H13S     HAL2     0.900000E-01   1.00800           0
     10150 MEMB     74       DOPC     C214     CTL2    -0.180000       12.0110           0
     10151 MEMB     74       DOPC     H14R     HAL2     0.900000E-01   1.00800           0
     10152 MEMB     74       DOPC     H14S     HAL2     0.900000E-01   1.00800           0
     10153 MEMB     74       DOPC     C215     CTL2    -0.180000       12.0110           0
     10154 MEMB     74       DOPC     H15R     HAL2     0.900000E-01   1.00800           0
     10155 MEMB     74       DOPC     H15S     HAL2     0.900000E-01   1.00800           0
     10156 MEMB     74       DOPC     C216     CTL2    -0.180000       12.0110           0
     10157 MEMB     74       DOPC     H16R     HAL2     0.900000E-01   1.00800           0
     10158 MEMB     74       DOPC     H16S     HAL2     0.900000E-01   1.00800           0
     10159 MEMB     74       DOPC     C217     CTL2    -0.180000       12.0110           0
     10160 MEMB     74       DOPC     H17R     HAL2     0.900000E-01   1.00800           0
     10161 MEMB     74       DOPC     H17S     HAL2     0.900000E-01   1.00800           0
     10162 MEMB     74       DOPC     C218     CTL3    -0.270000       12.0110           0
     10163 MEMB     74       DOPC     H18R     HAL3     0.900000E-01   1.00800           0
     10164 MEMB     74       DOPC     H18S     HAL3     0.900000E-01   1.00800           0
     10165 MEMB     74       DOPC     H18T     HAL3     0.900000E-01   1.00800           0
     10166 MEMB     74       DOPC     C33      CTL2    -0.180000       12.0110           0
     10167 MEMB     74       DOPC     H3X      HAL2     0.900000E-01   1.00800           0
     10168 MEMB     74       DOPC     H3Y      HAL2     0.900000E-01   1.00800           0
     10169 MEMB     74       DOPC     C34      CTL2    -0.180000       12.0110           0
     10170 MEMB     74       DOPC     H4X      HAL2     0.900000E-01   1.00800           0
     10171 MEMB     74       DOPC     H4Y      HAL2     0.900000E-01   1.00800           0
     10172 MEMB     74       DOPC     C35      CTL2    -0.180000       12.0110           0
     10173 MEMB     74       DOPC     H5X      HAL2     0.900000E-01   1.00800           0
     10174 MEMB     74       DOPC     H5Y      HAL2     0.900000E-01   1.00800           0
     10175 MEMB     74       DOPC     C36      CTL2    -0.180000       12.0110           0
     10176 MEMB     74       DOPC     H6X      HAL2     0.900000E-01   1.00800           0
     10177 MEMB     74       DOPC     H6Y      HAL2     0.900000E-01   1.00800           0
     10178 MEMB     74       DOPC     C37      CTL2    -0.180000       12.0110           0
     10179 MEMB     74       DOPC     H7X      HAL2     0.900000E-01   1.00800           0
     10180 MEMB     74       DOPC     H7Y      HAL2     0.900000E-01   1.00800           0
     10181 MEMB     74       DOPC     C38      CTL2    -0.180000       12.0110           0
     10182 MEMB     74       DOPC     H8X      HAL2     0.900000E-01   1.00800           0
     10183 MEMB     74       DOPC     H8Y      HAL2     0.900000E-01   1.00800           0
     10184 MEMB     74       DOPC     C39      CEL1    -0.150000       12.0110           0
     10185 MEMB     74       DOPC     H9X      HEL1     0.150000       1.00800           0
     10186 MEMB     74       DOPC     C310     CEL1    -0.150000       12.0110           0
     10187 MEMB     74       DOPC     H10X     HEL1     0.150000       1.00800           0
     10188 MEMB     74       DOPC     C311     CTL2    -0.180000       12.0110           0
     10189 MEMB     74       DOPC     H11X     HAL2     0.900000E-01   1.00800           0
     10190 MEMB     74       DOPC     H11Y     HAL2     0.900000E-01   1.00800           0
     10191 MEMB     74       DOPC     C312     CTL2    -0.180000       12.0110           0
     10192 MEMB     74       DOPC     H12X     HAL2     0.900000E-01   1.00800           0
     10193 MEMB     74       DOPC     H12Y     HAL2     0.900000E-01   1.00800           0
     10194 MEMB     74       DOPC     C313     CTL2    -0.180000       12.0110           0
     10195 MEMB     74       DOPC     H13X     HAL2     0.900000E-01   1.00800           0
     10196 MEMB     74       DOPC     H13Y     HAL2     0.900000E-01   1.00800           0
     10197 MEMB     74       DOPC     C314     CTL2    -0.180000       12.0110           0
     10198 MEMB     74       DOPC     H14X     HAL2     0.900000E-01   1.00800           0
     10199 MEMB     74       DOPC     H14Y     HAL2     0.900000E-01   1.00800           0
     10200 MEMB     74       DOPC     C315     CTL2    -0.180000       12.0110           0
     10201 MEMB     74       DOPC     H15X     HAL2     0.900000E-01   1.00800           0
     10202 MEMB     74       DOPC     H15Y     HAL2     0.900000E-01   1.00800           0
     10203 MEMB     74       DOPC     C316     CTL2    -0.180000       12.0110           0
     10204 MEMB     74       DOPC     H16X     HAL2     0.900000E-01   1.00800           0
     10205 MEMB     74       DOPC     H16Y     HAL2     0.900000E-01   1.00800           0
     10206 MEMB     74       DOPC     C317     CTL2    -0.180000       12.0110           0
     10207 MEMB     74       DOPC     H17X     HAL2     0.900000E-01   1.00800           0
     10208 MEMB     74       DOPC     H17Y     HAL2     0.900000E-01   1.00800           0
     10209 MEMB     74       DOPC     C318     CTL3    -0.270000       12.0110           0
     10210 MEMB     74       DOPC     H18X     HAL3     0.900000E-01   1.00800           0
     10211 MEMB     74       DOPC     H18Y     HAL3     0.900000E-01   1.00800           0
     10212 MEMB     74       DOPC     H18Z     HAL3     0.900000E-01   1.00800           0
     10213 MEMB     75       DOPC     N        NTL     -0.600000       14.0070           0
     10214 MEMB     75       DOPC     C12      CTL2    -0.100000       12.0110           0
     10215 MEMB     75       DOPC     H12A     HL       0.250000       1.00800           0
     10216 MEMB     75       DOPC     H12B     HL       0.250000       1.00800           0
     10217 MEMB     75       DOPC     C13      CTL5    -0.350000       12.0110           0
     10218 MEMB     75       DOPC     H13A     HL       0.250000       1.00800           0
     10219 MEMB     75       DOPC     H13B     HL       0.250000       1.00800           0
     10220 MEMB     75       DOPC     H13C     HL       0.250000       1.00800           0
     10221 MEMB     75       DOPC     C14      CTL5    -0.350000       12.0110           0
     10222 MEMB     75       DOPC     H14A     HL       0.250000       1.00800           0
     10223 MEMB     75       DOPC     H14B     HL       0.250000       1.00800           0
     10224 MEMB     75       DOPC     H14C     HL       0.250000       1.00800           0
     10225 MEMB     75       DOPC     C15      CTL5    -0.350000       12.0110           0
     10226 MEMB     75       DOPC     H15A     HL       0.250000       1.00800           0
     10227 MEMB     75       DOPC     H15B     HL       0.250000       1.00800           0
     10228 MEMB     75       DOPC     H15C     HL       0.250000       1.00800           0
     10229 MEMB     75       DOPC     C11      CTL2    -0.800000E-01   12.0110           0
     10230 MEMB     75       DOPC     H11A     HAL2     0.900000E-01   1.00800           0
     10231 MEMB     75       DOPC     H11B     HAL2     0.900000E-01   1.00800           0
     10232 MEMB     75       DOPC     P        PL        1.50000       30.9740           0
     10233 MEMB     75       DOPC     O13      O2L     -0.780000       15.9994           0
     10234 MEMB     75       DOPC     O14      O2L     -0.780000       15.9994           0
     10235 MEMB     75       DOPC     O12      OSLP    -0.570000       15.9994           0
     10236 MEMB     75       DOPC     O11      OSLP    -0.570000       15.9994           0
     10237 MEMB     75       DOPC     C1       CTL2    -0.800000E-01   12.0110           0
     10238 MEMB     75       DOPC     HA       HAL2     0.900000E-01   1.00800           0
     10239 MEMB     75       DOPC     HB       HAL2     0.900000E-01   1.00800           0
     10240 MEMB     75       DOPC     C2       CTL1     0.170000       12.0110           0
     10241 MEMB     75       DOPC     HS       HAL1     0.900000E-01   1.00800           0
     10242 MEMB     75       DOPC     O21      OSL     -0.490000       15.9994           0
     10243 MEMB     75       DOPC     C21      CL       0.900000       12.0110           0
     10244 MEMB     75       DOPC     O22      OBL     -0.630000       15.9994           0
     10245 MEMB     75       DOPC     C22      CTL2    -0.220000       12.0110           0
     10246 MEMB     75       DOPC     H2R      HAL2     0.900000E-01   1.00800           0
     10247 MEMB     75       DOPC     H2S      HAL2     0.900000E-01   1.00800           0
     10248 MEMB     75       DOPC     C3       CTL2     0.800000E-01   12.0110           0
     10249 MEMB     75       DOPC     HX       HAL2     0.900000E-01   1.00800           0
     10250 MEMB     75       DOPC     HY       HAL2     0.900000E-01   1.00800           0
     10251 MEMB     75       DOPC     O31      OSL     -0.490000       15.9994           0
     10252 MEMB     75       DOPC     C31      CL       0.900000       12.0110           0
     10253 MEMB     75       DOPC     O32      OBL     -0.630000       15.9994           0
     10254 MEMB     75       DOPC     C32      CTL2    -0.220000       12.0110           0
     10255 MEMB     75       DOPC     H2X      HAL2     0.900000E-01   1.00800           0
     10256 MEMB     75       DOPC     H2Y      HAL2     0.900000E-01   1.00800           0
     10257 MEMB     75       DOPC     C23      CTL2    -0.180000       12.0110           0
     10258 MEMB     75       DOPC     H3R      HAL2     0.900000E-01   1.00800           0
     10259 MEMB     75       DOPC     H3S      HAL2     0.900000E-01   1.00800           0
     10260 MEMB     75       DOPC     C24      CTL2    -0.180000       12.0110           0
     10261 MEMB     75       DOPC     H4R      HAL2     0.900000E-01   1.00800           0
     10262 MEMB     75       DOPC     H4S      HAL2     0.900000E-01   1.00800           0
     10263 MEMB     75       DOPC     C25      CTL2    -0.180000       12.0110           0
     10264 MEMB     75       DOPC     H5R      HAL2     0.900000E-01   1.00800           0
     10265 MEMB     75       DOPC     H5S      HAL2     0.900000E-01   1.00800           0
     10266 MEMB     75       DOPC     C26      CTL2    -0.180000       12.0110           0
     10267 MEMB     75       DOPC     H6R      HAL2     0.900000E-01   1.00800           0
     10268 MEMB     75       DOPC     H6S      HAL2     0.900000E-01   1.00800           0
     10269 MEMB     75       DOPC     C27      CTL2    -0.180000       12.0110           0
     10270 MEMB     75       DOPC     H7R      HAL2     0.900000E-01   1.00800           0
     10271 MEMB     75       DOPC     H7S      HAL2     0.900000E-01   1.00800           0
     10272 MEMB     75       DOPC     C28      CTL2    -0.180000       12.0110           0
     10273 MEMB     75       DOPC     H8R      HAL2     0.900000E-01   1.00800           0
     10274 MEMB     75       DOPC     H8S      HAL2     0.900000E-01   1.00800           0
     10275 MEMB     75       DOPC     C29      CEL1    -0.150000       12.0110           0
     10276 MEMB     75       DOPC     H9R      HEL1     0.150000       1.00800           0
     10277 MEMB     75       DOPC     C210     CEL1    -0.150000       12.0110           0
     10278 MEMB     75       DOPC     H10R     HEL1     0.150000       1.00800           0
     10279 MEMB     75       DOPC     C211     CTL2    -0.180000       12.0110           0
     10280 MEMB     75       DOPC     H11R     HAL2     0.900000E-01   1.00800           0
     10281 MEMB     75       DOPC     H11S     HAL2     0.900000E-01   1.00800           0
     10282 MEMB     75       DOPC     C212     CTL2    -0.180000       12.0110           0
     10283 MEMB     75       DOPC     H12R     HAL2     0.900000E-01   1.00800           0
     10284 MEMB     75       DOPC     H12S     HAL2     0.900000E-01   1.00800           0
     10285 MEMB     75       DOPC     C213     CTL2    -0.180000       12.0110           0
     10286 MEMB     75       DOPC     H13R     HAL2     0.900000E-01   1.00800           0
     10287 MEMB     75       DOPC     H13S     HAL2     0.900000E-01   1.00800           0
     10288 MEMB     75       DOPC     C214     CTL2    -0.180000       12.0110           0
     10289 MEMB     75       DOPC     H14R     HAL2     0.900000E-01   1.00800           0
     10290 MEMB     75       DOPC     H14S     HAL2     0.900000E-01   1.00800           0
     10291 MEMB     75       DOPC     C215     CTL2    -0.180000       12.0110           0
     10292 MEMB     75       DOPC     H15R     HAL2     0.900000E-01   1.00800           0
     10293 MEMB     75       DOPC     H15S     HAL2     0.900000E-01   1.00800           0
     10294 MEMB     75       DOPC     C216     CTL2    -0.180000       12.0110           0
     10295 MEMB     75       DOPC     H16R     HAL2     0.900000E-01   1.00800           0
     10296 MEMB     75       DOPC     H16S     HAL2     0.900000E-01   1.00800           0
     10297 MEMB     75       DOPC     C217     CTL2    -0.180000       12.0110           0
     10298 MEMB     75       DOPC     H17R     HAL2     0.900000E-01   1.00800           0
     10299 MEMB     75       DOPC     H17S     HAL2     0.900000E-01   1.00800           0
     10300 MEMB     75       DOPC     C218     CTL3    -0.270000       12.0110           0
     10301 MEMB     75       DOPC     H18R     HAL3     0.900000E-01   1.00800           0
     10302 MEMB     75       DOPC     H18S     HAL3     0.900000E-01   1.00800           0
     10303 MEMB     75       DOPC     H18T     HAL3     0.900000E-01   1.00800           0
     10304 MEMB     75       DOPC     C33      CTL2    -0.180000       12.0110           0
     10305 MEMB     75       DOPC     H3X      HAL2     0.900000E-01   1.00800           0
     10306 MEMB     75       DOPC     H3Y      HAL2     0.900000E-01   1.00800           0
     10307 MEMB     75       DOPC     C34      CTL2    -0.180000       12.0110           0
     10308 MEMB     75       DOPC     H4X      HAL2     0.900000E-01   1.00800           0
     10309 MEMB     75       DOPC     H4Y      HAL2     0.900000E-01   1.00800           0
     10310 MEMB     75       DOPC     C35      CTL2    -0.180000       12.0110           0
     10311 MEMB     75       DOPC     H5X      HAL2     0.900000E-01   1.00800           0
     10312 MEMB     75       DOPC     H5Y      HAL2     0.900000E-01   1.00800           0
     10313 MEMB     75       DOPC     C36      CTL2    -0.180000       12.0110           0
     10314 MEMB     75       DOPC     H6X      HAL2     0.900000E-01   1.00800           0
     10315 MEMB     75       DOPC     H6Y      HAL2     0.900000E-01   1.00800           0
     10316 MEMB     75       DOPC     C37      CTL2    -0.180000       12.0110           0
     10317 MEMB     75       DOPC     H7X      HAL2     0.900000E-01   1.00800           0
     10318 MEMB     75       DOPC     H7Y      HAL2     0.900000E-01   1.00800           0
     10319 MEMB     75       DOPC     C38      CTL2    -0.180000       12.0110           0
     10320 MEMB     75       DOPC     H8X      HAL2     0.900000E-01   1.00800           0
     10321 MEMB     75       DOPC     H8Y      HAL2     0.900000E-01   1.00800           0
     10322 MEMB     75       DOPC     C39      CEL1    -0.150000       12.0110           0
     10323 MEMB     75       DOPC     H9X      HEL1     0.150000       1.00800           0
     10324 MEMB     75       DOPC     C310     CEL1    -0.150000       12.0110           0
     10325 MEMB     75       DOPC     H10X     HEL1     0.150000       1.00800           0
     10326 MEMB     75       DOPC     C311     CTL2    -0.180000       12.0110           0
     10327 MEMB     75       DOPC     H11X     HAL2     0.900000E-01   1.00800           0
     10328 MEMB     75       DOPC     H11Y     HAL2     0.900000E-01   1.00800           0
     10329 MEMB     75       DOPC     C312     CTL2    -0.180000       12.0110           0
     10330 MEMB     75       DOPC     H12X     HAL2     0.900000E-01   1.00800           0
     10331 MEMB     75       DOPC     H12Y     HAL2     0.900000E-01   1.00800           0
     10332 MEMB     75       DOPC     C313     CTL2    -0.180000       12.0110           0
     10333 MEMB     75       DOPC     H13X     HAL2     0.900000E-01   1.00800           0
     10334 MEMB     75       DOPC     H13Y     HAL2     0.900000E-01   1.00800           0
     10335 MEMB     75       DOPC     C314     CTL2    -0.180000       12.0110           0
     10336 MEMB     75       DOPC     H14X     HAL2     0.900000E-01   1.00800           0
     10337 MEMB     75       DOPC     H14Y     HAL2     0.900000E-01   1.00800           0
     10338 MEMB     75       DOPC     C315     CTL2    -0.180000       12.0110           0
     10339 MEMB     75       DOPC     H15X     HAL2     0.900000E-01   1.00800           0
     10340 MEMB     75       DOPC     H15Y     HAL2     0.900000E-01   1.00800           0
     10341 MEMB     75       DOPC     C316     CTL2    -0.180000       12.0110           0
     10342 MEMB     75       DOPC     H16X     HAL2     0.900000E-01   1.00800           0
     10343 MEMB     75       DOPC     H16Y     HAL2     0.900000E-01   1.00800           0
     10344 MEMB     75       DOPC     C317     CTL2    -0.180000       12.0110           0
     10345 MEMB     75       DOPC     H17X     HAL2     0.900000E-01   1.00800           0
     10346 MEMB     75       DOPC     H17Y     HAL2     0.900000E-01   1.00800           0
     10347 MEMB     75       DOPC     C318     CTL3    -0.270000       12.0110           0
     10348 MEMB     75       DOPC     H18X     HAL3     0.900000E-01   1.00800           0
     10349 MEMB     75       DOPC     H18Y     HAL3     0.900000E-01   1.00800           0
     10350 MEMB     75       DOPC     H18Z     HAL3     0.900000E-01   1.00800           0
     10351 MEMB     76       DOPC     N        NTL     -0.600000       14.0070           0
     10352 MEMB     76       DOPC     C12      CTL2    -0.100000       12.0110           0
     10353 MEMB     76       DOPC     H12A     HL       0.250000       1.00800           0
     10354 MEMB     76       DOPC     H12B     HL       0.250000       1.00800           0
     10355 MEMB     76       DOPC     C13      CTL5    -0.350000       12.0110           0
     10356 MEMB     76       DOPC     H13A     HL       0.250000       1.00800           0
     10357 MEMB     76       DOPC     H13B     HL       0.250000       1.00800           0
     10358 MEMB     76       DOPC     H13C     HL       0.250000       1.00800           0
     10359 MEMB     76       DOPC     C14      CTL5    -0.350000       12.0110           0
     10360 MEMB     76       DOPC     H14A     HL       0.250000       1.00800           0
     10361 MEMB     76       DOPC     H14B     HL       0.250000       1.00800           0
     10362 MEMB     76       DOPC     H14C     HL       0.250000       1.00800           0
     10363 MEMB     76       DOPC     C15      CTL5    -0.350000       12.0110           0
     10364 MEMB     76       DOPC     H15A     HL       0.250000       1.00800           0
     10365 MEMB     76       DOPC     H15B     HL       0.250000       1.00800           0
     10366 MEMB     76       DOPC     H15C     HL       0.250000       1.00800           0
     10367 MEMB     76       DOPC     C11      CTL2    -0.800000E-01   12.0110           0
     10368 MEMB     76       DOPC     H11A     HAL2     0.900000E-01   1.00800           0
     10369 MEMB     76       DOPC     H11B     HAL2     0.900000E-01   1.00800           0
     10370 MEMB     76       DOPC     P        PL        1.50000       30.9740           0
     10371 MEMB     76       DOPC     O13      O2L     -0.780000       15.9994           0
     10372 MEMB     76       DOPC     O14      O2L     -0.780000       15.9994           0
     10373 MEMB     76       DOPC     O12      OSLP    -0.570000       15.9994           0
     10374 MEMB     76       DOPC     O11      OSLP    -0.570000       15.9994           0
     10375 MEMB     76       DOPC     C1       CTL2    -0.800000E-01   12.0110           0
     10376 MEMB     76       DOPC     HA       HAL2     0.900000E-01   1.00800           0
     10377 MEMB     76       DOPC     HB       HAL2     0.900000E-01   1.00800           0
     10378 MEMB     76       DOPC     C2       CTL1     0.170000       12.0110           0
     10379 MEMB     76       DOPC     HS       HAL1     0.900000E-01   1.00800           0
     10380 MEMB     76       DOPC     O21      OSL     -0.490000       15.9994           0
     10381 MEMB     76       DOPC     C21      CL       0.900000       12.0110           0
     10382 MEMB     76       DOPC     O22      OBL     -0.630000       15.9994           0
     10383 MEMB     76       DOPC     C22      CTL2    -0.220000       12.0110           0
     10384 MEMB     76       DOPC     H2R      HAL2     0.900000E-01   1.00800           0
     10385 MEMB     76       DOPC     H2S      HAL2     0.900000E-01   1.00800           0
     10386 MEMB     76       DOPC     C3       CTL2     0.800000E-01   12.0110           0
     10387 MEMB     76       DOPC     HX       HAL2     0.900000E-01   1.00800           0
     10388 MEMB     76       DOPC     HY       HAL2     0.900000E-01   1.00800           0
     10389 MEMB     76       DOPC     O31      OSL     -0.490000       15.9994           0
     10390 MEMB     76       DOPC     C31      CL       0.900000       12.0110           0
     10391 MEMB     76       DOPC     O32      OBL     -0.630000       15.9994           0
     10392 MEMB     76       DOPC     C32      CTL2    -0.220000       12.0110           0
     10393 MEMB     76       DOPC     H2X      HAL2     0.900000E-01   1.00800           0
     10394 MEMB     76       DOPC     H2Y      HAL2     0.900000E-01   1.00800           0
     10395 MEMB     76       DOPC     C23      CTL2    -0.180000       12.0110           0
     10396 MEMB     76       DOPC     H3R      HAL2     0.900000E-01   1.00800           0
     10397 MEMB     76       DOPC     H3S      HAL2     0.900000E-01   1.00800           0
     10398 MEMB     76       DOPC     C24      CTL2    -0.180000       12.0110           0
     10399 MEMB     76       DOPC     H4R      HAL2     0.900000E-01   1.00800           0
     10400 MEMB     76       DOPC     H4S      HAL2     0.900000E-01   1.00800           0
     10401 MEMB     76       DOPC     C25      CTL2    -0.180000       12.0110           0
     10402 MEMB     76       DOPC     H5R      HAL2     0.900000E-01   1.00800           0
     10403 MEMB     76       DOPC     H5S      HAL2     0.900000E-01   1.00800           0
     10404 MEMB     76       DOPC     C26      CTL2    -0.180000       12.0110           0
     10405 MEMB     76       DOPC     H6R      HAL2     0.900000E-01   1.00800           0
     10406 MEMB     76       DOPC     H6S      HAL2     0.900000E-01   1.00800           0
     10407 MEMB     76       DOPC     C27      CTL2    -0.180000       12.0110           0
     10408 MEMB     76       DOPC     H7R      HAL2     0.900000E-01   1.00800           0
     10409 MEMB     76       DOPC     H7S      HAL2     0.900000E-01   1.00800           0
     10410 MEMB     76       DOPC     C28      CTL2    -0.180000       12.0110           0
     10411 MEMB     76       DOPC     H8R      HAL2     0.900000E-01   1.00800           0
     10412 MEMB     76       DOPC     H8S      HAL2     0.900000E-01   1.00800           0
     10413 MEMB     76       DOPC     C29      CEL1    -0.150000       12.0110           0
     10414 MEMB     76       DOPC     H9R      HEL1     0.150000       1.00800           0
     10415 MEMB     76       DOPC     C210     CEL1    -0.150000       12.0110           0
     10416 MEMB     76       DOPC     H10R     HEL1     0.150000       1.00800           0
     10417 MEMB     76       DOPC     C211     CTL2    -0.180000       12.0110           0
     10418 MEMB     76       DOPC     H11R     HAL2     0.900000E-01   1.00800           0
     10419 MEMB     76       DOPC     H11S     HAL2     0.900000E-01   1.00800           0
     10420 MEMB     76       DOPC     C212     CTL2    -0.180000       12.0110           0
     10421 MEMB     76       DOPC     H12R     HAL2     0.900000E-01   1.00800           0
     10422 MEMB     76       DOPC     H12S     HAL2     0.900000E-01   1.00800           0
     10423 MEMB     76       DOPC     C213     CTL2    -0.180000       12.0110           0
     10424 MEMB     76       DOPC     H13R     HAL2     0.900000E-01   1.00800           0
     10425 MEMB     76       DOPC     H13S     HAL2     0.900000E-01   1.00800           0
     10426 MEMB     76       DOPC     C214     CTL2    -0.180000       12.0110           0
     10427 MEMB     76       DOPC     H14R     HAL2     0.900000E-01   1.00800           0
     10428 MEMB     76       DOPC     H14S     HAL2     0.900000E-01   1.00800           0
     10429 MEMB     76       DOPC     C215     CTL2    -0.180000       12.0110           0
     10430 MEMB     76       DOPC     H15R     HAL2     0.900000E-01   1.00800           0
     10431 MEMB     76       DOPC     H15S     HAL2     0.900000E-01   1.00800           0
     10432 MEMB     76       DOPC     C216     CTL2    -0.180000       12.0110           0
     10433 MEMB     76       DOPC     H16R     HAL2     0.900000E-01   1.00800           0
     10434 MEMB     76       DOPC     H16S     HAL2     0.900000E-01   1.00800           0
     10435 MEMB     76       DOPC     C217     CTL2    -0.180000       12.0110           0
     10436 MEMB     76       DOPC     H17R     HAL2     0.900000E-01   1.00800           0
     10437 MEMB     76       DOPC     H17S     HAL2     0.900000E-01   1.00800           0
     10438 MEMB     76       DOPC     C218     CTL3    -0.270000       12.0110           0
     10439 MEMB     76       DOPC     H18R     HAL3     0.900000E-01   1.00800           0
     10440 MEMB     76       DOPC     H18S     HAL3     0.900000E-01   1.00800           0
     10441 MEMB     76       DOPC     H18T     HAL3     0.900000E-01   1.00800           0
     10442 MEMB     76       DOPC     C33      CTL2    -0.180000       12.0110           0
     10443 MEMB     76       DOPC     H3X      HAL2     0.900000E-01   1.00800           0
     10444 MEMB     76       DOPC     H3Y      HAL2     0.900000E-01   1.00800           0
     10445 MEMB     76       DOPC     C34      CTL2    -0.180000       12.0110           0
     10446 MEMB     76       DOPC     H4X      HAL2     0.900000E-01   1.00800           0
     10447 MEMB     76       DOPC     H4Y      HAL2     0.900000E-01   1.00800           0
     10448 MEMB     76       DOPC     C35      CTL2    -0.180000       12.0110           0
     10449 MEMB     76       DOPC     H5X      HAL2     0.900000E-01   1.00800           0
     10450 MEMB     76       DOPC     H5Y      HAL2     0.900000E-01   1.00800           0
     10451 MEMB     76       DOPC     C36      CTL2    -0.180000       12.0110           0
     10452 MEMB     76       DOPC     H6X      HAL2     0.900000E-01   1.00800           0
     10453 MEMB     76       DOPC     H6Y      HAL2     0.900000E-01   1.00800           0
     10454 MEMB     76       DOPC     C37      CTL2    -0.180000       12.0110           0
     10455 MEMB     76       DOPC     H7X      HAL2     0.900000E-01   1.00800           0
     10456 MEMB     76       DOPC     H7Y      HAL2     0.900000E-01   1.00800           0
     10457 MEMB     76       DOPC     C38      CTL2    -0.180000       12.0110           0
     10458 MEMB     76       DOPC     H8X      HAL2     0.900000E-01   1.00800           0
     10459 MEMB     76       DOPC     H8Y      HAL2     0.900000E-01   1.00800           0
     10460 MEMB     76       DOPC     C39      CEL1    -0.150000       12.0110           0
     10461 MEMB     76       DOPC     H9X      HEL1     0.150000       1.00800           0
     10462 MEMB     76       DOPC     C310     CEL1    -0.150000       12.0110           0
     10463 MEMB     76       DOPC     H10X     HEL1     0.150000       1.00800           0
     10464 MEMB     76       DOPC     C311     CTL2    -0.180000       12.0110           0
     10465 MEMB     76       DOPC     H11X     HAL2     0.900000E-01   1.00800           0
     10466 MEMB     76       DOPC     H11Y     HAL2     0.900000E-01   1.00800           0
     10467 MEMB     76       DOPC     C312     CTL2    -0.180000       12.0110           0
     10468 MEMB     76       DOPC     H12X     HAL2     0.900000E-01   1.00800           0
     10469 MEMB     76       DOPC     H12Y     HAL2     0.900000E-01   1.00800           0
     10470 MEMB     76       DOPC     C313     CTL2    -0.180000       12.0110           0
     10471 MEMB     76       DOPC     H13X     HAL2     0.900000E-01   1.00800           0
     10472 MEMB     76       DOPC     H13Y     HAL2     0.900000E-01   1.00800           0
     10473 MEMB     76       DOPC     C314     CTL2    -0.180000       12.0110           0
     10474 MEMB     76       DOPC     H14X     HAL2     0.900000E-01   1.00800           0
     10475 MEMB     76       DOPC     H14Y     HAL2     0.900000E-01   1.00800           0
     10476 MEMB     76       DOPC     C315     CTL2    -0.180000       12.0110           0
     10477 MEMB     76       DOPC     H15X     HAL2     0.900000E-01   1.00800           0
     10478 MEMB     76       DOPC     H15Y     HAL2     0.900000E-01   1.00800           0
     10479 MEMB     76       DOPC     C316     CTL2    -0.180000       12.0110           0
     10480 MEMB     76       DOPC     H16X     HAL2     0.900000E-01   1.00800           0
     10481 MEMB     76       DOPC     H16Y     HAL2     0.900000E-01   1.00800           0
     10482 MEMB     76       DOPC     C317     CTL2    -0.180000       12.0110           0
     10483 MEMB     76       DOPC     H17X     HAL2     0.900000E-01   1.00800           0
     10484 MEMB     76       DOPC     H17Y     HAL2     0.900000E-01   1.00800           0
     10485 MEMB     76       DOPC     C318     CTL3    -0.270000       12.0110           0
     10486 MEMB     76       DOPC     H18X     HAL3     0.900000E-01   1.00800           0
     10487 MEMB     76       DOPC     H18Y     HAL3     0.900000E-01   1.00800           0
     10488 MEMB     76       DOPC     H18Z     HAL3     0.900000E-01   1.00800           0
     10489 MEMB     77       DOPC     N        NTL     -0.600000       14.0070           0
     10490 MEMB     77       DOPC     C12      CTL2    -0.100000       12.0110           0
     10491 MEMB     77       DOPC     H12A     HL       0.250000       1.00800           0
     10492 MEMB     77       DOPC     H12B     HL       0.250000       1.00800           0
     10493 MEMB     77       DOPC     C13      CTL5    -0.350000       12.0110           0
     10494 MEMB     77       DOPC     H13A     HL       0.250000       1.00800           0
     10495 MEMB     77       DOPC     H13B     HL       0.250000       1.00800           0
     10496 MEMB     77       DOPC     H13C     HL       0.250000       1.00800           0
     10497 MEMB     77       DOPC     C14      CTL5    -0.350000       12.0110           0
     10498 MEMB     77       DOPC     H14A     HL       0.250000       1.00800           0
     10499 MEMB     77       DOPC     H14B     HL       0.250000       1.00800           0
     10500 MEMB     77       DOPC     H14C     HL       0.250000       1.00800           0
     10501 MEMB     77       DOPC     C15      CTL5    -0.350000       12.0110           0
     10502 MEMB     77       DOPC     H15A     HL       0.250000       1.00800           0
     10503 MEMB     77       DOPC     H15B     HL       0.250000       1.00800           0
     10504 MEMB     77       DOPC     H15C     HL       0.250000       1.00800           0
     10505 MEMB     77       DOPC     C11      CTL2    -0.800000E-01   12.0110           0
     10506 MEMB     77       DOPC     H11A     HAL2     0.900000E-01   1.00800           0
     10507 MEMB     77       DOPC     H11B     HAL2     0.900000E-01   1.00800           0
     10508 MEMB     77       DOPC     P        PL        1.50000       30.9740           0
     10509 MEMB     77       DOPC     O13      O2L     -0.780000       15.9994           0
     10510 MEMB     77       DOPC     O14      O2L     -0.780000       15.9994           0
     10511 MEMB     77       DOPC     O12      OSLP    -0.570000       15.9994           0
     10512 MEMB     77       DOPC     O11      OSLP    -0.570000       15.9994           0
     10513 MEMB     77       DOPC     C1       CTL2    -0.800000E-01   12.0110           0
     10514 MEMB     77       DOPC     HA       HAL2     0.900000E-01   1.00800           0
     10515 MEMB     77       DOPC     HB       HAL2     0.900000E-01   1.00800           0
     10516 MEMB     77       DOPC     C2       CTL1     0.170000       12.0110           0
     10517 MEMB     77       DOPC     HS       HAL1     0.900000E-01   1.00800           0
     10518 MEMB     77       DOPC     O21      OSL     -0.490000       15.9994           0
     10519 MEMB     77       DOPC     C21      CL       0.900000       12.0110           0
     10520 MEMB     77       DOPC     O22      OBL     -0.630000       15.9994           0
     10521 MEMB     77       DOPC     C22      CTL2    -0.220000       12.0110           0
     10522 MEMB     77       DOPC     H2R      HAL2     0.900000E-01   1.00800           0
     10523 MEMB     77       DOPC     H2S      HAL2     0.900000E-01   1.00800           0
     10524 MEMB     77       DOPC     C3       CTL2     0.800000E-01   12.0110           0
     10525 MEMB     77       DOPC     HX       HAL2     0.900000E-01   1.00800           0
     10526 MEMB     77       DOPC     HY       HAL2     0.900000E-01   1.00800           0
     10527 MEMB     77       DOPC     O31      OSL     -0.490000       15.9994           0
     10528 MEMB     77       DOPC     C31      CL       0.900000       12.0110           0
     10529 MEMB     77       DOPC     O32      OBL     -0.630000       15.9994           0
     10530 MEMB     77       DOPC     C32      CTL2    -0.220000       12.0110           0
     10531 MEMB     77       DOPC     H2X      HAL2     0.900000E-01   1.00800           0
     10532 MEMB     77       DOPC     H2Y      HAL2     0.900000E-01   1.00800           0
     10533 MEMB     77       DOPC     C23      CTL2    -0.180000       12.0110           0
     10534 MEMB     77       DOPC     H3R      HAL2     0.900000E-01   1.00800           0
     10535 MEMB     77       DOPC     H3S      HAL2     0.900000E-01   1.00800           0
     10536 MEMB     77       DOPC     C24      CTL2    -0.180000       12.0110           0
     10537 MEMB     77       DOPC     H4R      HAL2     0.900000E-01   1.00800           0
     10538 MEMB     77       DOPC     H4S      HAL2     0.900000E-01   1.00800           0
     10539 MEMB     77       DOPC     C25      CTL2    -0.180000       12.0110           0
     10540 MEMB     77       DOPC     H5R      HAL2     0.900000E-01   1.00800           0
     10541 MEMB     77       DOPC     H5S      HAL2     0.900000E-01   1.00800           0
     10542 MEMB     77       DOPC     C26      CTL2    -0.180000       12.0110           0
     10543 MEMB     77       DOPC     H6R      HAL2     0.900000E-01   1.00800           0
     10544 MEMB     77       DOPC     H6S      HAL2     0.900000E-01   1.00800           0
     10545 MEMB     77       DOPC     C27      CTL2    -0.180000       12.0110           0
     10546 MEMB     77       DOPC     H7R      HAL2     0.900000E-01   1.00800           0
     10547 MEMB     77       DOPC     H7S      HAL2     0.900000E-01   1.00800           0
     10548 MEMB     77       DOPC     C28      CTL2    -0.180000       12.0110           0
     10549 MEMB     77       DOPC     H8R      HAL2     0.900000E-01   1.00800           0
     10550 MEMB     77       DOPC     H8S      HAL2     0.900000E-01   1.00800           0
     10551 MEMB     77       DOPC     C29      CEL1    -0.150000       12.0110           0
     10552 MEMB     77       DOPC     H9R      HEL1     0.150000       1.00800           0
     10553 MEMB     77       DOPC     C210     CEL1    -0.150000       12.0110           0
     10554 MEMB     77       DOPC     H10R     HEL1     0.150000       1.00800           0
     10555 MEMB     77       DOPC     C211     CTL2    -0.180000       12.0110           0
     10556 MEMB     77       DOPC     H11R     HAL2     0.900000E-01   1.00800           0
     10557 MEMB     77       DOPC     H11S     HAL2     0.900000E-01   1.00800           0
     10558 MEMB     77       DOPC     C212     CTL2    -0.180000       12.0110           0
     10559 MEMB     77       DOPC     H12R     HAL2     0.900000E-01   1.00800           0
     10560 MEMB     77       DOPC     H12S     HAL2     0.900000E-01   1.00800           0
     10561 MEMB     77       DOPC     C213     CTL2    -0.180000       12.0110           0
     10562 MEMB     77       DOPC     H13R     HAL2     0.900000E-01   1.00800           0
     10563 MEMB     77       DOPC     H13S     HAL2     0.900000E-01   1.00800           0
     10564 MEMB     77       DOPC     C214     CTL2    -0.180000       12.0110           0
     10565 MEMB     77       DOPC     H14R     HAL2     0.900000E-01   1.00800           0
     10566 MEMB     77       DOPC     H14S     HAL2     0.900000E-01   1.00800           0
     10567 MEMB     77       DOPC     C215     CTL2    -0.180000       12.0110           0
     10568 MEMB     77       DOPC     H15R     HAL2     0.900000E-01   1.00800           0
     10569 MEMB     77       DOPC     H15S     HAL2     0.900000E-01   1.00800           0
     10570 MEMB     77       DOPC     C216     CTL2    -0.180000       12.0110           0
     10571 MEMB     77       DOPC     H16R     HAL2     0.900000E-01   1.00800           0
     10572 MEMB     77       DOPC     H16S     HAL2     0.900000E-01   1.00800           0
     10573 MEMB     77       DOPC     C217     CTL2    -0.180000       12.0110           0
     10574 MEMB     77       DOPC     H17R     HAL2     0.900000E-01   1.00800           0
     10575 MEMB     77       DOPC     H17S     HAL2     0.900000E-01   1.00800           0
     10576 MEMB     77       DOPC     C218     CTL3    -0.270000       12.0110           0
     10577 MEMB     77       DOPC     H18R     HAL3     0.900000E-01   1.00800           0
     10578 MEMB     77       DOPC     H18S     HAL3     0.900000E-01   1.00800           0
     10579 MEMB     77       DOPC     H18T     HAL3     0.900000E-01   1.00800           0
     10580 MEMB     77       DOPC     C33      CTL2    -0.180000       12.0110           0
     10581 MEMB     77       DOPC     H3X      HAL2     0.900000E-01   1.00800           0
     10582 MEMB     77       DOPC     H3Y      HAL2     0.900000E-01   1.00800           0
     10583 MEMB     77       DOPC     C34      CTL2    -0.180000       12.0110           0
     10584 MEMB     77       DOPC     H4X      HAL2     0.900000E-01   1.00800           0
     10585 MEMB     77       DOPC     H4Y      HAL2     0.900000E-01   1.00800           0
     10586 MEMB     77       DOPC     C35      CTL2    -0.180000       12.0110           0
     10587 MEMB     77       DOPC     H5X      HAL2     0.900000E-01   1.00800           0
     10588 MEMB     77       DOPC     H5Y      HAL2     0.900000E-01   1.00800           0
     10589 MEMB     77       DOPC     C36      CTL2    -0.180000       12.0110           0
     10590 MEMB     77       DOPC     H6X      HAL2     0.900000E-01   1.00800           0
     10591 MEMB     77       DOPC     H6Y      HAL2     0.900000E-01   1.00800           0
     10592 MEMB     77       DOPC     C37      CTL2    -0.180000       12.0110           0
     10593 MEMB     77       DOPC     H7X      HAL2     0.900000E-01   1.00800           0
     10594 MEMB     77       DOPC     H7Y      HAL2     0.900000E-01   1.00800           0
     10595 MEMB     77       DOPC     C38      CTL2    -0.180000       12.0110           0
     10596 MEMB     77       DOPC     H8X      HAL2     0.900000E-01   1.00800           0
     10597 MEMB     77       DOPC     H8Y      HAL2     0.900000E-01   1.00800           0
     10598 MEMB     77       DOPC     C39      CEL1    -0.150000       12.0110           0
     10599 MEMB     77       DOPC     H9X      HEL1     0.150000       1.00800           0
     10600 MEMB     77       DOPC     C310     CEL1    -0.150000       12.0110           0
     10601 MEMB     77       DOPC     H10X     HEL1     0.150000       1.00800           0
     10602 MEMB     77       DOPC     C311     CTL2    -0.180000       12.0110           0
     10603 MEMB     77       DOPC     H11X     HAL2     0.900000E-01   1.00800           0
     10604 MEMB     77       DOPC     H11Y     HAL2     0.900000E-01   1.00800           0
     10605 MEMB     77       DOPC     C312     CTL2    -0.180000       12.0110           0
     10606 MEMB     77       DOPC     H12X     HAL2     0.900000E-01   1.00800           0
     10607 MEMB     77       DOPC     H12Y     HAL2     0.900000E-01   1.00800           0
     10608 MEMB     77       DOPC     C313     CTL2    -0.180000       12.0110           0
     10609 MEMB     77       DOPC     H13X     HAL2     0.900000E-01   1.00800           0
     10610 MEMB     77       DOPC     H13Y     HAL2     0.900000E-01   1.00800           0
     10611 MEMB     77       DOPC     C314     CTL2    -0.180000       12.0110           0
     10612 MEMB     77       DOPC     H14X     HAL2     0.900000E-01   1.00800           0
     10613 MEMB     77       DOPC     H14Y     HAL2     0.900000E-01   1.00800           0
     10614 MEMB     77       DOPC     C315     CTL2    -0.180000       12.0110           0
     10615 MEMB     77       DOPC     H15X     HAL2     0.900000E-01   1.00800           0
     10616 MEMB     77       DOPC     H15Y     HAL2     0.900000E-01   1.00800           0
     10617 MEMB     77       DOPC     C316     CTL2    -0.180000       12.0110           0
     10618 MEMB     77       DOPC     H16X     HAL2     0.900000E-01   1.00800           0
     10619 MEMB     77       DOPC     H16Y     HAL2     0.900000E-01   1.00800           0
     10620 MEMB     77       DOPC     C317     CTL2    -0.180000       12.0110           0
     10621 MEMB     77       DOPC     H17X     HAL2     0.900000E-01   1.00800           0
     10622 MEMB     77       DOPC     H17Y     HAL2     0.900000E-01   1.00800           0
     10623 MEMB     77       DOPC     C318     CTL3    -0.270000       12.0110           0
     10624 MEMB     77       DOPC     H18X     HAL3     0.900000E-01   1.00800           0
     10625 MEMB     77       DOPC     H18Y     HAL3     0.900000E-01   1.00800           0
     10626 MEMB     77       DOPC     H18Z     HAL3     0.900000E-01   1.00800           0
     10627 MEMB     78       DOPC     N        NTL     -0.600000       14.0070           0
     10628 MEMB     78       DOPC     C12      CTL2    -0.100000       12.0110           0
     10629 MEMB     78       DOPC     H12A     HL       0.250000       1.00800           0
     10630 MEMB     78       DOPC     H12B     HL       0.250000       1.00800           0
     10631 MEMB     78       DOPC     C13      CTL5    -0.350000       12.0110           0
     10632 MEMB     78       DOPC     H13A     HL       0.250000       1.00800           0
     10633 MEMB     78       DOPC     H13B     HL       0.250000       1.00800           0
     10634 MEMB     78       DOPC     H13C     HL       0.250000       1.00800           0
     10635 MEMB     78       DOPC     C14      CTL5    -0.350000       12.0110           0
     10636 MEMB     78       DOPC     H14A     HL       0.250000       1.00800           0
     10637 MEMB     78       DOPC     H14B     HL       0.250000       1.00800           0
     10638 MEMB     78       DOPC     H14C     HL       0.250000       1.00800           0
     10639 MEMB     78       DOPC     C15      CTL5    -0.350000       12.0110           0
     10640 MEMB     78       DOPC     H15A     HL       0.250000       1.00800           0
     10641 MEMB     78       DOPC     H15B     HL       0.250000       1.00800           0
     10642 MEMB     78       DOPC     H15C     HL       0.250000       1.00800           0
     10643 MEMB     78       DOPC     C11      CTL2    -0.800000E-01   12.0110           0
     10644 MEMB     78       DOPC     H11A     HAL2     0.900000E-01   1.00800           0
     10645 MEMB     78       DOPC     H11B     HAL2     0.900000E-01   1.00800           0
     10646 MEMB     78       DOPC     P        PL        1.50000       30.9740           0
     10647 MEMB     78       DOPC     O13      O2L     -0.780000       15.9994           0
     10648 MEMB     78       DOPC     O14      O2L     -0.780000       15.9994           0
     10649 MEMB     78       DOPC     O12      OSLP    -0.570000       15.9994           0
     10650 MEMB     78       DOPC     O11      OSLP    -0.570000       15.9994           0
     10651 MEMB     78       DOPC     C1       CTL2    -0.800000E-01   12.0110           0
     10652 MEMB     78       DOPC     HA       HAL2     0.900000E-01   1.00800           0
     10653 MEMB     78       DOPC     HB       HAL2     0.900000E-01   1.00800           0
     10654 MEMB     78       DOPC     C2       CTL1     0.170000       12.0110           0
     10655 MEMB     78       DOPC     HS       HAL1     0.900000E-01   1.00800           0
     10656 MEMB     78       DOPC     O21      OSL     -0.490000       15.9994           0
     10657 MEMB     78       DOPC     C21      CL       0.900000       12.0110           0
     10658 MEMB     78       DOPC     O22      OBL     -0.630000       15.9994           0
     10659 MEMB     78       DOPC     C22      CTL2    -0.220000       12.0110           0
     10660 MEMB     78       DOPC     H2R      HAL2     0.900000E-01   1.00800           0
     10661 MEMB     78       DOPC     H2S      HAL2     0.900000E-01   1.00800           0
     10662 MEMB     78       DOPC     C3       CTL2     0.800000E-01   12.0110           0
     10663 MEMB     78       DOPC     HX       HAL2     0.900000E-01   1.00800           0
     10664 MEMB     78       DOPC     HY       HAL2     0.900000E-01   1.00800           0
     10665 MEMB     78       DOPC     O31      OSL     -0.490000       15.9994           0
     10666 MEMB     78       DOPC     C31      CL       0.900000       12.0110           0
     10667 MEMB     78       DOPC     O32      OBL     -0.630000       15.9994           0
     10668 MEMB     78       DOPC     C32      CTL2    -0.220000       12.0110           0
     10669 MEMB     78       DOPC     H2X      HAL2     0.900000E-01   1.00800           0
     10670 MEMB     78       DOPC     H2Y      HAL2     0.900000E-01   1.00800           0
     10671 MEMB     78       DOPC     C23      CTL2    -0.180000       12.0110           0
     10672 MEMB     78       DOPC     H3R      HAL2     0.900000E-01   1.00800           0
     10673 MEMB     78       DOPC     H3S      HAL2     0.900000E-01   1.00800           0
     10674 MEMB     78       DOPC     C24      CTL2    -0.180000       12.0110           0
     10675 MEMB     78       DOPC     H4R      HAL2     0.900000E-01   1.00800           0
     10676 MEMB     78       DOPC     H4S      HAL2     0.900000E-01   1.00800           0
     10677 MEMB     78       DOPC     C25      CTL2    -0.180000       12.0110           0
     10678 MEMB     78       DOPC     H5R      HAL2     0.900000E-01   1.00800           0
     10679 MEMB     78       DOPC     H5S      HAL2     0.900000E-01   1.00800           0
     10680 MEMB     78       DOPC     C26      CTL2    -0.180000       12.0110           0
     10681 MEMB     78       DOPC     H6R      HAL2     0.900000E-01   1.00800           0
     10682 MEMB     78       DOPC     H6S      HAL2     0.900000E-01   1.00800           0
     10683 MEMB     78       DOPC     C27      CTL2    -0.180000       12.0110           0
     10684 MEMB     78       DOPC     H7R      HAL2     0.900000E-01   1.00800           0
     10685 MEMB     78       DOPC     H7S      HAL2     0.900000E-01   1.00800           0
     10686 MEMB     78       DOPC     C28      CTL2    -0.180000       12.0110           0
     10687 MEMB     78       DOPC     H8R      HAL2     0.900000E-01   1.00800           0
     10688 MEMB     78       DOPC     H8S      HAL2     0.900000E-01   1.00800           0
     10689 MEMB     78       DOPC     C29      CEL1    -0.150000       12.0110           0
     10690 MEMB     78       DOPC     H9R      HEL1     0.150000       1.00800           0
     10691 MEMB     78       DOPC     C210     CEL1    -0.150000       12.0110           0
     10692 MEMB     78       DOPC     H10R     HEL1     0.150000       1.00800           0
     10693 MEMB     78       DOPC     C211     CTL2    -0.180000       12.0110           0
     10694 MEMB     78       DOPC     H11R     HAL2     0.900000E-01   1.00800           0
     10695 MEMB     78       DOPC     H11S     HAL2     0.900000E-01   1.00800           0
     10696 MEMB     78       DOPC     C212     CTL2    -0.180000       12.0110           0
     10697 MEMB     78       DOPC     H12R     HAL2     0.900000E-01   1.00800           0
     10698 MEMB     78       DOPC     H12S     HAL2     0.900000E-01   1.00800           0
     10699 MEMB     78       DOPC     C213     CTL2    -0.180000       12.0110           0
     10700 MEMB     78       DOPC     H13R     HAL2     0.900000E-01   1.00800           0
     10701 MEMB     78       DOPC     H13S     HAL2     0.900000E-01   1.00800           0
     10702 MEMB     78       DOPC     C214     CTL2    -0.180000       12.0110           0
     10703 MEMB     78       DOPC     H14R     HAL2     0.900000E-01   1.00800           0
     10704 MEMB     78       DOPC     H14S     HAL2     0.900000E-01   1.00800           0
     10705 MEMB     78       DOPC     C215     CTL2    -0.180000       12.0110           0
     10706 MEMB     78       DOPC     H15R     HAL2     0.900000E-01   1.00800           0
     10707 MEMB     78       DOPC     H15S     HAL2     0.900000E-01   1.00800           0
     10708 MEMB     78       DOPC     C216     CTL2    -0.180000       12.0110           0
     10709 MEMB     78       DOPC     H16R     HAL2     0.900000E-01   1.00800           0
     10710 MEMB     78       DOPC     H16S     HAL2     0.900000E-01   1.00800           0
     10711 MEMB     78       DOPC     C217     CTL2    -0.180000       12.0110           0
     10712 MEMB     78       DOPC     H17R     HAL2     0.900000E-01   1.00800           0
     10713 MEMB     78       DOPC     H17S     HAL2     0.900000E-01   1.00800           0
     10714 MEMB     78       DOPC     C218     CTL3    -0.270000       12.0110           0
     10715 MEMB     78       DOPC     H18R     HAL3     0.900000E-01   1.00800           0
     10716 MEMB     78       DOPC     H18S     HAL3     0.900000E-01   1.00800           0
     10717 MEMB     78       DOPC     H18T     HAL3     0.900000E-01   1.00800           0
     10718 MEMB     78       DOPC     C33      CTL2    -0.180000       12.0110           0
     10719 MEMB     78       DOPC     H3X      HAL2     0.900000E-01   1.00800           0
     10720 MEMB     78       DOPC     H3Y      HAL2     0.900000E-01   1.00800           0
     10721 MEMB     78       DOPC     C34      CTL2    -0.180000       12.0110           0
     10722 MEMB     78       DOPC     H4X      HAL2     0.900000E-01   1.00800           0
     10723 MEMB     78       DOPC     H4Y      HAL2     0.900000E-01   1.00800           0
     10724 MEMB     78       DOPC     C35      CTL2    -0.180000       12.0110           0
     10725 MEMB     78       DOPC     H5X      HAL2     0.900000E-01   1.00800           0
     10726 MEMB     78       DOPC     H5Y      HAL2     0.900000E-01   1.00800           0
     10727 MEMB     78       DOPC     C36      CTL2    -0.180000       12.0110           0
     10728 MEMB     78       DOPC     H6X      HAL2     0.900000E-01   1.00800           0
     10729 MEMB     78       DOPC     H6Y      HAL2     0.900000E-01   1.00800           0
     10730 MEMB     78       DOPC     C37      CTL2    -0.180000       12.0110           0
     10731 MEMB     78       DOPC     H7X      HAL2     0.900000E-01   1.00800           0
     10732 MEMB     78       DOPC     H7Y      HAL2     0.900000E-01   1.00800           0
     10733 MEMB     78       DOPC     C38      CTL2    -0.180000       12.0110           0
     10734 MEMB     78       DOPC     H8X      HAL2     0.900000E-01   1.00800           0
     10735 MEMB     78       DOPC     H8Y      HAL2     0.900000E-01   1.00800           0
     10736 MEMB     78       DOPC     C39      CEL1    -0.150000       12.0110           0
     10737 MEMB     78       DOPC     H9X      HEL1     0.150000       1.00800           0
     10738 MEMB     78       DOPC     C310     CEL1    -0.150000       12.0110           0
     10739 MEMB     78       DOPC     H10X     HEL1     0.150000       1.00800           0
     10740 MEMB     78       DOPC     C311     CTL2    -0.180000       12.0110           0
     10741 MEMB     78       DOPC     H11X     HAL2     0.900000E-01   1.00800           0
     10742 MEMB     78       DOPC     H11Y     HAL2     0.900000E-01   1.00800           0
     10743 MEMB     78       DOPC     C312     CTL2    -0.180000       12.0110           0
     10744 MEMB     78       DOPC     H12X     HAL2     0.900000E-01   1.00800           0
     10745 MEMB     78       DOPC     H12Y     HAL2     0.900000E-01   1.00800           0
     10746 MEMB     78       DOPC     C313     CTL2    -0.180000       12.0110           0
     10747 MEMB     78       DOPC     H13X     HAL2     0.900000E-01   1.00800           0
     10748 MEMB     78       DOPC     H13Y     HAL2     0.900000E-01   1.00800           0
     10749 MEMB     78       DOPC     C314     CTL2    -0.180000       12.0110           0
     10750 MEMB     78       DOPC     H14X     HAL2     0.900000E-01   1.00800           0
     10751 MEMB     78       DOPC     H14Y     HAL2     0.900000E-01   1.00800           0
     10752 MEMB     78       DOPC     C315     CTL2    -0.180000       12.0110           0
     10753 MEMB     78       DOPC     H15X     HAL2     0.900000E-01   1.00800           0
     10754 MEMB     78       DOPC     H15Y     HAL2     0.900000E-01   1.00800           0
     10755 MEMB     78       DOPC     C316     CTL2    -0.180000       12.0110           0
     10756 MEMB     78       DOPC     H16X     HAL2     0.900000E-01   1.00800           0
     10757 MEMB     78       DOPC     H16Y     HAL2     0.900000E-01   1.00800           0
     10758 MEMB     78       DOPC     C317     CTL2    -0.180000       12.0110           0
     10759 MEMB     78       DOPC     H17X     HAL2     0.900000E-01   1.00800           0
     10760 MEMB     78       DOPC     H17Y     HAL2     0.900000E-01   1.00800           0
     10761 MEMB     78       DOPC     C318     CTL3    -0.270000       12.0110           0
     10762 MEMB     78       DOPC     H18X     HAL3     0.900000E-01   1.00800           0
     10763 MEMB     78       DOPC     H18Y     HAL3     0.900000E-01   1.00800           0
     10764 MEMB     78       DOPC     H18Z     HAL3     0.900000E-01   1.00800           0
     10765 MEMB     79       DOPC     N        NTL     -0.600000       14.0070           0
     10766 MEMB     79       DOPC     C12      CTL2    -0.100000       12.0110           0
     10767 MEMB     79       DOPC     H12A     HL       0.250000       1.00800           0
     10768 MEMB     79       DOPC     H12B     HL       0.250000       1.00800           0
     10769 MEMB     79       DOPC     C13      CTL5    -0.350000       12.0110           0
     10770 MEMB     79       DOPC     H13A     HL       0.250000       1.00800           0
     10771 MEMB     79       DOPC     H13B     HL       0.250000       1.00800           0
     10772 MEMB     79       DOPC     H13C     HL       0.250000       1.00800           0
     10773 MEMB     79       DOPC     C14      CTL5    -0.350000       12.0110           0
     10774 MEMB     79       DOPC     H14A     HL       0.250000       1.00800           0
     10775 MEMB     79       DOPC     H14B     HL       0.250000       1.00800           0
     10776 MEMB     79       DOPC     H14C     HL       0.250000       1.00800           0
     10777 MEMB     79       DOPC     C15      CTL5    -0.350000       12.0110           0
     10778 MEMB     79       DOPC     H15A     HL       0.250000       1.00800           0
     10779 MEMB     79       DOPC     H15B     HL       0.250000       1.00800           0
     10780 MEMB     79       DOPC     H15C     HL       0.250000       1.00800           0
     10781 MEMB     79       DOPC     C11      CTL2    -0.800000E-01   12.0110           0
     10782 MEMB     79       DOPC     H11A     HAL2     0.900000E-01   1.00800           0
     10783 MEMB     79       DOPC     H11B     HAL2     0.900000E-01   1.00800           0
     10784 MEMB     79       DOPC     P        PL        1.50000       30.9740           0
     10785 MEMB     79       DOPC     O13      O2L     -0.780000       15.9994           0
     10786 MEMB     79       DOPC     O14      O2L     -0.780000       15.9994           0
     10787 MEMB     79       DOPC     O12      OSLP    -0.570000       15.9994           0
     10788 MEMB     79       DOPC     O11      OSLP    -0.570000       15.9994           0
     10789 MEMB     79       DOPC     C1       CTL2    -0.800000E-01   12.0110           0
     10790 MEMB     79       DOPC     HA       HAL2     0.900000E-01   1.00800           0
     10791 MEMB     79       DOPC     HB       HAL2     0.900000E-01   1.00800           0
     10792 MEMB     79       DOPC     C2       CTL1     0.170000       12.0110           0
     10793 MEMB     79       DOPC     HS       HAL1     0.900000E-01   1.00800           0
     10794 MEMB     79       DOPC     O21      OSL     -0.490000       15.9994           0
     10795 MEMB     79       DOPC     C21      CL       0.900000       12.0110           0
     10796 MEMB     79       DOPC     O22      OBL     -0.630000       15.9994           0
     10797 MEMB     79       DOPC     C22      CTL2    -0.220000       12.0110           0
     10798 MEMB     79       DOPC     H2R      HAL2     0.900000E-01   1.00800           0
     10799 MEMB     79       DOPC     H2S      HAL2     0.900000E-01   1.00800           0
     10800 MEMB     79       DOPC     C3       CTL2     0.800000E-01   12.0110           0
     10801 MEMB     79       DOPC     HX       HAL2     0.900000E-01   1.00800           0
     10802 MEMB     79       DOPC     HY       HAL2     0.900000E-01   1.00800           0
     10803 MEMB     79       DOPC     O31      OSL     -0.490000       15.9994           0
     10804 MEMB     79       DOPC     C31      CL       0.900000       12.0110           0
     10805 MEMB     79       DOPC     O32      OBL     -0.630000       15.9994           0
     10806 MEMB     79       DOPC     C32      CTL2    -0.220000       12.0110           0
     10807 MEMB     79       DOPC     H2X      HAL2     0.900000E-01   1.00800           0
     10808 MEMB     79       DOPC     H2Y      HAL2     0.900000E-01   1.00800           0
     10809 MEMB     79       DOPC     C23      CTL2    -0.180000       12.0110           0
     10810 MEMB     79       DOPC     H3R      HAL2     0.900000E-01   1.00800           0
     10811 MEMB     79       DOPC     H3S      HAL2     0.900000E-01   1.00800           0
     10812 MEMB     79       DOPC     C24      CTL2    -0.180000       12.0110           0
     10813 MEMB     79       DOPC     H4R      HAL2     0.900000E-01   1.00800           0
     10814 MEMB     79       DOPC     H4S      HAL2     0.900000E-01   1.00800           0
     10815 MEMB     79       DOPC     C25      CTL2    -0.180000       12.0110           0
     10816 MEMB     79       DOPC     H5R      HAL2     0.900000E-01   1.00800           0
     10817 MEMB     79       DOPC     H5S      HAL2     0.900000E-01   1.00800           0
     10818 MEMB     79       DOPC     C26      CTL2    -0.180000       12.0110           0
     10819 MEMB     79       DOPC     H6R      HAL2     0.900000E-01   1.00800           0
     10820 MEMB     79       DOPC     H6S      HAL2     0.900000E-01   1.00800           0
     10821 MEMB     79       DOPC     C27      CTL2    -0.180000       12.0110           0
     10822 MEMB     79       DOPC     H7R      HAL2     0.900000E-01   1.00800           0
     10823 MEMB     79       DOPC     H7S      HAL2     0.900000E-01   1.00800           0
     10824 MEMB     79       DOPC     C28      CTL2    -0.180000       12.0110           0
     10825 MEMB     79       DOPC     H8R      HAL2     0.900000E-01   1.00800           0
     10826 MEMB     79       DOPC     H8S      HAL2     0.900000E-01   1.00800           0
     10827 MEMB     79       DOPC     C29      CEL1    -0.150000       12.0110           0
     10828 MEMB     79       DOPC     H9R      HEL1     0.150000       1.00800           0
     10829 MEMB     79       DOPC     C210     CEL1    -0.150000       12.0110           0
     10830 MEMB     79       DOPC     H10R     HEL1     0.150000       1.00800           0
     10831 MEMB     79       DOPC     C211     CTL2    -0.180000       12.0110           0
     10832 MEMB     79       DOPC     H11R     HAL2     0.900000E-01   1.00800           0
     10833 MEMB     79       DOPC     H11S     HAL2     0.900000E-01   1.00800           0
     10834 MEMB     79       DOPC     C212     CTL2    -0.180000       12.0110           0
     10835 MEMB     79       DOPC     H12R     HAL2     0.900000E-01   1.00800           0
     10836 MEMB     79       DOPC     H12S     HAL2     0.900000E-01   1.00800           0
     10837 MEMB     79       DOPC     C213     CTL2    -0.180000       12.0110           0
     10838 MEMB     79       DOPC     H13R     HAL2     0.900000E-01   1.00800           0
     10839 MEMB     79       DOPC     H13S     HAL2     0.900000E-01   1.00800           0
     10840 MEMB     79       DOPC     C214     CTL2    -0.180000       12.0110           0
     10841 MEMB     79       DOPC     H14R     HAL2     0.900000E-01   1.00800           0
     10842 MEMB     79       DOPC     H14S     HAL2     0.900000E-01   1.00800           0
     10843 MEMB     79       DOPC     C215     CTL2    -0.180000       12.0110           0
     10844 MEMB     79       DOPC     H15R     HAL2     0.900000E-01   1.00800           0
     10845 MEMB     79       DOPC     H15S     HAL2     0.900000E-01   1.00800           0
     10846 MEMB     79       DOPC     C216     CTL2    -0.180000       12.0110           0
     10847 MEMB     79       DOPC     H16R     HAL2     0.900000E-01   1.00800           0
     10848 MEMB     79       DOPC     H16S     HAL2     0.900000E-01   1.00800           0
     10849 MEMB     79       DOPC     C217     CTL2    -0.180000       12.0110           0
     10850 MEMB     79       DOPC     H17R     HAL2     0.900000E-01   1.00800           0
     10851 MEMB     79       DOPC     H17S     HAL2     0.900000E-01   1.00800           0
     10852 MEMB     79       DOPC     C218     CTL3    -0.270000       12.0110           0
     10853 MEMB     79       DOPC     H18R     HAL3     0.900000E-01   1.00800           0
     10854 MEMB     79       DOPC     H18S     HAL3     0.900000E-01   1.00800           0
     10855 MEMB     79       DOPC     H18T     HAL3     0.900000E-01   1.00800           0
     10856 MEMB     79       DOPC     C33      CTL2    -0.180000       12.0110           0
     10857 MEMB     79       DOPC     H3X      HAL2     0.900000E-01   1.00800           0
     10858 MEMB     79       DOPC     H3Y      HAL2     0.900000E-01   1.00800           0
     10859 MEMB     79       DOPC     C34      CTL2    -0.180000       12.0110           0
     10860 MEMB     79       DOPC     H4X      HAL2     0.900000E-01   1.00800           0
     10861 MEMB     79       DOPC     H4Y      HAL2     0.900000E-01   1.00800           0
     10862 MEMB     79       DOPC     C35      CTL2    -0.180000       12.0110           0
     10863 MEMB     79       DOPC     H5X      HAL2     0.900000E-01   1.00800           0
     10864 MEMB     79       DOPC     H5Y      HAL2     0.900000E-01   1.00800           0
     10865 MEMB     79       DOPC     C36      CTL2    -0.180000       12.0110           0
     10866 MEMB     79       DOPC     H6X      HAL2     0.900000E-01   1.00800           0
     10867 MEMB     79       DOPC     H6Y      HAL2     0.900000E-01   1.00800           0
     10868 MEMB     79       DOPC     C37      CTL2    -0.180000       12.0110           0
     10869 MEMB     79       DOPC     H7X      HAL2     0.900000E-01   1.00800           0
     10870 MEMB     79       DOPC     H7Y      HAL2     0.900000E-01   1.00800           0
     10871 MEMB     79       DOPC     C38      CTL2    -0.180000       12.0110           0
     10872 MEMB     79       DOPC     H8X      HAL2     0.900000E-01   1.00800           0
     10873 MEMB     79       DOPC     H8Y      HAL2     0.900000E-01   1.00800           0
     10874 MEMB     79       DOPC     C39      CEL1    -0.150000       12.0110           0
     10875 MEMB     79       DOPC     H9X      HEL1     0.150000       1.00800           0
     10876 MEMB     79       DOPC     C310     CEL1    -0.150000       12.0110           0
     10877 MEMB     79       DOPC     H10X     HEL1     0.150000       1.00800           0
     10878 MEMB     79       DOPC     C311     CTL2    -0.180000       12.0110           0
     10879 MEMB     79       DOPC     H11X     HAL2     0.900000E-01   1.00800           0
     10880 MEMB     79       DOPC     H11Y     HAL2     0.900000E-01   1.00800           0
     10881 MEMB     79       DOPC     C312     CTL2    -0.180000       12.0110           0
     10882 MEMB     79       DOPC     H12X     HAL2     0.900000E-01   1.00800           0
     10883 MEMB     79       DOPC     H12Y     HAL2     0.900000E-01   1.00800           0
     10884 MEMB     79       DOPC     C313     CTL2    -0.180000       12.0110           0
     10885 MEMB     79       DOPC     H13X     HAL2     0.900000E-01   1.00800           0
     10886 MEMB     79       DOPC     H13Y     HAL2     0.900000E-01   1.00800           0
     10887 MEMB     79       DOPC     C314     CTL2    -0.180000       12.0110           0
     10888 MEMB     79       DOPC     H14X     HAL2     0.900000E-01   1.00800           0
     10889 MEMB     79       DOPC     H14Y     HAL2     0.900000E-01   1.00800           0
     10890 MEMB     79       DOPC     C315     CTL2    -0.180000       12.0110           0
     10891 MEMB     79       DOPC     H15X     HAL2     0.900000E-01   1.00800           0
     10892 MEMB     79       DOPC     H15Y     HAL2     0.900000E-01   1.00800           0
     10893 MEMB     79       DOPC     C316     CTL2    -0.180000       12.0110           0
     10894 MEMB     79       DOPC     H16X     HAL2     0.900000E-01   1.00800           0
     10895 MEMB     79       DOPC     H16Y     HAL2     0.900000E-01   1.00800           0
     10896 MEMB     79       DOPC     C317     CTL2    -0.180000       12.0110           0
     10897 MEMB     79       DOPC     H17X     HAL2     0.900000E-01   1.00800           0
     10898 MEMB     79       DOPC     H17Y     HAL2     0.900000E-01   1.00800           0
     10899 MEMB     79       DOPC     C318     CTL3    -0.270000       12.0110           0
     10900 MEMB     79       DOPC     H18X     HAL3     0.900000E-01   1.00800           0
     10901 MEMB     79       DOPC     H18Y     HAL3     0.900000E-01   1.00800           0
     10902 MEMB     79       DOPC     H18Z     HAL3     0.900000E-01   1.00800           0
     10903 MEMB     80       DOPC     N        NTL     -0.600000       14.0070           0
     10904 MEMB     80       DOPC     C12      CTL2    -0.100000       12.0110           0
     10905 MEMB     80       DOPC     H12A     HL       0.250000       1.00800           0
     10906 MEMB     80       DOPC     H12B     HL       0.250000       1.00800           0
     10907 MEMB     80       DOPC     C13      CTL5    -0.350000       12.0110           0
     10908 MEMB     80       DOPC     H13A     HL       0.250000       1.00800           0
     10909 MEMB     80       DOPC     H13B     HL       0.250000       1.00800           0
     10910 MEMB     80       DOPC     H13C     HL       0.250000       1.00800           0
     10911 MEMB     80       DOPC     C14      CTL5    -0.350000       12.0110           0
     10912 MEMB     80       DOPC     H14A     HL       0.250000       1.00800           0
     10913 MEMB     80       DOPC     H14B     HL       0.250000       1.00800           0
     10914 MEMB     80       DOPC     H14C     HL       0.250000       1.00800           0
     10915 MEMB     80       DOPC     C15      CTL5    -0.350000       12.0110           0
     10916 MEMB     80       DOPC     H15A     HL       0.250000       1.00800           0
     10917 MEMB     80       DOPC     H15B     HL       0.250000       1.00800           0
     10918 MEMB     80       DOPC     H15C     HL       0.250000       1.00800           0
     10919 MEMB     80       DOPC     C11      CTL2    -0.800000E-01   12.0110           0
     10920 MEMB     80       DOPC     H11A     HAL2     0.900000E-01   1.00800           0
     10921 MEMB     80       DOPC     H11B     HAL2     0.900000E-01   1.00800           0
     10922 MEMB     80       DOPC     P        PL        1.50000       30.9740           0
     10923 MEMB     80       DOPC     O13      O2L     -0.780000       15.9994           0
     10924 MEMB     80       DOPC     O14      O2L     -0.780000       15.9994           0
     10925 MEMB     80       DOPC     O12      OSLP    -0.570000       15.9994           0
     10926 MEMB     80       DOPC     O11      OSLP    -0.570000       15.9994           0
     10927 MEMB     80       DOPC     C1       CTL2    -0.800000E-01   12.0110           0
     10928 MEMB     80       DOPC     HA       HAL2     0.900000E-01   1.00800           0
     10929 MEMB     80       DOPC     HB       HAL2     0.900000E-01   1.00800           0
     10930 MEMB     80       DOPC     C2       CTL1     0.170000       12.0110           0
     10931 MEMB     80       DOPC     HS       HAL1     0.900000E-01   1.00800           0
     10932 MEMB     80       DOPC     O21      OSL     -0.490000       15.9994           0
     10933 MEMB     80       DOPC     C21      CL       0.900000       12.0110           0
     10934 MEMB     80       DOPC     O22      OBL     -0.630000       15.9994           0
     10935 MEMB     80       DOPC     C22      CTL2    -0.220000       12.0110           0
     10936 MEMB     80       DOPC     H2R      HAL2     0.900000E-01   1.00800           0
     10937 MEMB     80       DOPC     H2S      HAL2     0.900000E-01   1.00800           0
     10938 MEMB     80       DOPC     C3       CTL2     0.800000E-01   12.0110           0
     10939 MEMB     80       DOPC     HX       HAL2     0.900000E-01   1.00800           0
     10940 MEMB     80       DOPC     HY       HAL2     0.900000E-01   1.00800           0
     10941 MEMB     80       DOPC     O31      OSL     -0.490000       15.9994           0
     10942 MEMB     80       DOPC     C31      CL       0.900000       12.0110           0
     10943 MEMB     80       DOPC     O32      OBL     -0.630000       15.9994           0
     10944 MEMB     80       DOPC     C32      CTL2    -0.220000       12.0110           0
     10945 MEMB     80       DOPC     H2X      HAL2     0.900000E-01   1.00800           0
     10946 MEMB     80       DOPC     H2Y      HAL2     0.900000E-01   1.00800           0
     10947 MEMB     80       DOPC     C23      CTL2    -0.180000       12.0110           0
     10948 MEMB     80       DOPC     H3R      HAL2     0.900000E-01   1.00800           0
     10949 MEMB     80       DOPC     H3S      HAL2     0.900000E-01   1.00800           0
     10950 MEMB     80       DOPC     C24      CTL2    -0.180000       12.0110           0
     10951 MEMB     80       DOPC     H4R      HAL2     0.900000E-01   1.00800           0
     10952 MEMB     80       DOPC     H4S      HAL2     0.900000E-01   1.00800           0
     10953 MEMB     80       DOPC     C25      CTL2    -0.180000       12.0110           0
     10954 MEMB     80       DOPC     H5R      HAL2     0.900000E-01   1.00800           0
     10955 MEMB     80       DOPC     H5S      HAL2     0.900000E-01   1.00800           0
     10956 MEMB     80       DOPC     C26      CTL2    -0.180000       12.0110           0
     10957 MEMB     80       DOPC     H6R      HAL2     0.900000E-01   1.00800           0
     10958 MEMB     80       DOPC     H6S      HAL2     0.900000E-01   1.00800           0
     10959 MEMB     80       DOPC     C27      CTL2    -0.180000       12.0110           0
     10960 MEMB     80       DOPC     H7R      HAL2     0.900000E-01   1.00800           0
     10961 MEMB     80       DOPC     H7S      HAL2     0.900000E-01   1.00800           0
     10962 MEMB     80       DOPC     C28      CTL2    -0.180000       12.0110           0
     10963 MEMB     80       DOPC     H8R      HAL2     0.900000E-01   1.00800           0
     10964 MEMB     80       DOPC     H8S      HAL2     0.900000E-01   1.00800           0
     10965 MEMB     80       DOPC     C29      CEL1    -0.150000       12.0110           0
     10966 MEMB     80       DOPC     H9R      HEL1     0.150000       1.00800           0
     10967 MEMB     80       DOPC     C210     CEL1    -0.150000       12.0110           0
     10968 MEMB     80       DOPC     H10R     HEL1     0.150000       1.00800           0
     10969 MEMB     80       DOPC     C211     CTL2    -0.180000       12.0110           0
     10970 MEMB     80       DOPC     H11R     HAL2     0.900000E-01   1.00800           0
     10971 MEMB     80       DOPC     H11S     HAL2     0.900000E-01   1.00800           0
     10972 MEMB     80       DOPC     C212     CTL2    -0.180000       12.0110           0
     10973 MEMB     80       DOPC     H12R     HAL2     0.900000E-01   1.00800           0
     10974 MEMB     80       DOPC     H12S     HAL2     0.900000E-01   1.00800           0
     10975 MEMB     80       DOPC     C213     CTL2    -0.180000       12.0110           0
     10976 MEMB     80       DOPC     H13R     HAL2     0.900000E-01   1.00800           0
     10977 MEMB     80       DOPC     H13S     HAL2     0.900000E-01   1.00800           0
     10978 MEMB     80       DOPC     C214     CTL2    -0.180000       12.0110           0
     10979 MEMB     80       DOPC     H14R     HAL2     0.900000E-01   1.00800           0
     10980 MEMB     80       DOPC     H14S     HAL2     0.900000E-01   1.00800           0
     10981 MEMB     80       DOPC     C215     CTL2    -0.180000       12.0110           0
     10982 MEMB     80       DOPC     H15R     HAL2     0.900000E-01   1.00800           0
     10983 MEMB     80       DOPC     H15S     HAL2     0.900000E-01   1.00800           0
     10984 MEMB     80       DOPC     C216     CTL2    -0.180000       12.0110           0
     10985 MEMB     80       DOPC     H16R     HAL2     0.900000E-01   1.00800           0
     10986 MEMB     80       DOPC     H16S     HAL2     0.900000E-01   1.00800           0
     10987 MEMB     80       DOPC     C217     CTL2    -0.180000       12.0110           0
     10988 MEMB     80       DOPC     H17R     HAL2     0.900000E-01   1.00800           0
     10989 MEMB     80       DOPC     H17S     HAL2     0.900000E-01   1.00800           0
     10990 MEMB     80       DOPC     C218     CTL3    -0.270000       12.0110           0
     10991 MEMB     80       DOPC     H18R     HAL3     0.900000E-01   1.00800           0
     10992 MEMB     80       DOPC     H18S     HAL3     0.900000E-01   1.00800           0
     10993 MEMB     80       DOPC     H18T     HAL3     0.900000E-01   1.00800           0
     10994 MEMB     80       DOPC     C33      CTL2    -0.180000       12.0110           0
     10995 MEMB     80       DOPC     H3X      HAL2     0.900000E-01   1.00800           0
     10996 MEMB     80       DOPC     H3Y      HAL2     0.900000E-01   1.00800           0
     10997 MEMB     80       DOPC     C34      CTL2    -0.180000       12.0110           0
     10998 MEMB     80       DOPC     H4X      HAL2     0.900000E-01   1.00800           0
     10999 MEMB     80       DOPC     H4Y      HAL2     0.900000E-01   1.00800           0
     11000 MEMB     80       DOPC     C35      CTL2    -0.180000       12.0110           0
     11001 MEMB     80       DOPC     H5X      HAL2     0.900000E-01   1.00800           0
     11002 MEMB     80       DOPC     H5Y      HAL2     0.900000E-01   1.00800           0
     11003 MEMB     80       DOPC     C36      CTL2    -0.180000       12.0110           0
     11004 MEMB     80       DOPC     H6X      HAL2     0.900000E-01   1.00800           0
     11005 MEMB     80       DOPC     H6Y      HAL2     0.900000E-01   1.00800           0
     11006 MEMB     80       DOPC     C37      CTL2    -0.180000       12.0110           0
     11007 MEMB     80       DOPC     H7X      HAL2     0.900000E-01   1.00800           0
     11008 MEMB     80       DOPC     H7Y      HAL2     0.900000E-01   1.00800           0
     11009 MEMB     80       DOPC     C38      CTL2    -0.180000       12.0110           0
     11010 MEMB     80       DOPC     H8X      HAL2     0.900000E-01   1.00800           0
     11011 MEMB     80       DOPC     H8Y      HAL2     0.900000E-01   1.00800           0
     11012 MEMB     80       DOPC     C39      CEL1    -0.150000       12.0110           0
     11013 MEMB     80       DOPC     H9X      HEL1     0.150000       1.00800           0
     11014 MEMB     80       DOPC     C310     CEL1    -0.150000       12.0110           0
     11015 MEMB     80       DOPC     H10X     HEL1     0.150000       1.00800           0
     11016 MEMB     80       DOPC     C311     CTL2    -0.180000       12.0110           0
     11017 MEMB     80       DOPC     H11X     HAL2     0.900000E-01   1.00800           0
     11018 MEMB     80       DOPC     H11Y     HAL2     0.900000E-01   1.00800           0
     11019 MEMB     80       DOPC     C312     CTL2    -0.180000       12.0110           0
     11020 MEMB     80       DOPC     H12X     HAL2     0.900000E-01   1.00800           0
     11021 MEMB     80       DOPC     H12Y     HAL2     0.900000E-01   1.00800           0
     11022 MEMB     80       DOPC     C313     CTL2    -0.180000       12.0110           0
     11023 MEMB     80       DOPC     H13X     HAL2     0.900000E-01   1.00800           0
     11024 MEMB     80       DOPC     H13Y     HAL2     0.900000E-01   1.00800           0
     11025 MEMB     80       DOPC     C314     CTL2    -0.180000       12.0110           0
     11026 MEMB     80       DOPC     H14X     HAL2     0.900000E-01   1.00800           0
     11027 MEMB     80       DOPC     H14Y     HAL2     0.900000E-01   1.00800           0
     11028 MEMB     80       DOPC     C315     CTL2    -0.180000       12.0110           0
     11029 MEMB     80       DOPC     H15X     HAL2     0.900000E-01   1.00800           0
     11030 MEMB     80       DOPC     H15Y     HAL2     0.900000E-01   1.00800           0
     11031 MEMB     80       DOPC     C316     CTL2    -0.180000       12.0110           0
     11032 MEMB     80       DOPC     H16X     HAL2     0.900000E-01   1.00800           0
     11033 MEMB     80       DOPC     H16Y     HAL2     0.900000E-01   1.00800           0
     11034 MEMB     80       DOPC     C317     CTL2    -0.180000       12.0110           0
     11035 MEMB     80       DOPC     H17X     HAL2     0.900000E-01   1.00800           0
     11036 MEMB     80       DOPC     H17Y     HAL2     0.900000E-01   1.00800           0
     11037 MEMB     80       DOPC     C318     CTL3    -0.270000       12.0110           0
     11038 MEMB     80       DOPC     H18X     HAL3     0.900000E-01   1.00800           0
     11039 MEMB     80       DOPC     H18Y     HAL3     0.900000E-01   1.00800           0
     11040 MEMB     80       DOPC     H18Z     HAL3     0.900000E-01   1.00800           0
     11041 MEMB     81       DOPC     N        NTL     -0.600000       14.0070           0
     11042 MEMB     81       DOPC     C12      CTL2    -0.100000       12.0110           0
     11043 MEMB     81       DOPC     H12A     HL       0.250000       1.00800           0
     11044 MEMB     81       DOPC     H12B     HL       0.250000       1.00800           0
     11045 MEMB     81       DOPC     C13      CTL5    -0.350000       12.0110           0
     11046 MEMB     81       DOPC     H13A     HL       0.250000       1.00800           0
     11047 MEMB     81       DOPC     H13B     HL       0.250000       1.00800           0
     11048 MEMB     81       DOPC     H13C     HL       0.250000       1.00800           0
     11049 MEMB     81       DOPC     C14      CTL5    -0.350000       12.0110           0
     11050 MEMB     81       DOPC     H14A     HL       0.250000       1.00800           0
     11051 MEMB     81       DOPC     H14B     HL       0.250000       1.00800           0
     11052 MEMB     81       DOPC     H14C     HL       0.250000       1.00800           0
     11053 MEMB     81       DOPC     C15      CTL5    -0.350000       12.0110           0
     11054 MEMB     81       DOPC     H15A     HL       0.250000       1.00800           0
     11055 MEMB     81       DOPC     H15B     HL       0.250000       1.00800           0
     11056 MEMB     81       DOPC     H15C     HL       0.250000       1.00800           0
     11057 MEMB     81       DOPC     C11      CTL2    -0.800000E-01   12.0110           0
     11058 MEMB     81       DOPC     H11A     HAL2     0.900000E-01   1.00800           0
     11059 MEMB     81       DOPC     H11B     HAL2     0.900000E-01   1.00800           0
     11060 MEMB     81       DOPC     P        PL        1.50000       30.9740           0
     11061 MEMB     81       DOPC     O13      O2L     -0.780000       15.9994           0
     11062 MEMB     81       DOPC     O14      O2L     -0.780000       15.9994           0
     11063 MEMB     81       DOPC     O12      OSLP    -0.570000       15.9994           0
     11064 MEMB     81       DOPC     O11      OSLP    -0.570000       15.9994           0
     11065 MEMB     81       DOPC     C1       CTL2    -0.800000E-01   12.0110           0
     11066 MEMB     81       DOPC     HA       HAL2     0.900000E-01   1.00800           0
     11067 MEMB     81       DOPC     HB       HAL2     0.900000E-01   1.00800           0
     11068 MEMB     81       DOPC     C2       CTL1     0.170000       12.0110           0
     11069 MEMB     81       DOPC     HS       HAL1     0.900000E-01   1.00800           0
     11070 MEMB     81       DOPC     O21      OSL     -0.490000       15.9994           0
     11071 MEMB     81       DOPC     C21      CL       0.900000       12.0110           0
     11072 MEMB     81       DOPC     O22      OBL     -0.630000       15.9994           0
     11073 MEMB     81       DOPC     C22      CTL2    -0.220000       12.0110           0
     11074 MEMB     81       DOPC     H2R      HAL2     0.900000E-01   1.00800           0
     11075 MEMB     81       DOPC     H2S      HAL2     0.900000E-01   1.00800           0
     11076 MEMB     81       DOPC     C3       CTL2     0.800000E-01   12.0110           0
     11077 MEMB     81       DOPC     HX       HAL2     0.900000E-01   1.00800           0
     11078 MEMB     81       DOPC     HY       HAL2     0.900000E-01   1.00800           0
     11079 MEMB     81       DOPC     O31      OSL     -0.490000       15.9994           0
     11080 MEMB     81       DOPC     C31      CL       0.900000       12.0110           0
     11081 MEMB     81       DOPC     O32      OBL     -0.630000       15.9994           0
     11082 MEMB     81       DOPC     C32      CTL2    -0.220000       12.0110           0
     11083 MEMB     81       DOPC     H2X      HAL2     0.900000E-01   1.00800           0
     11084 MEMB     81       DOPC     H2Y      HAL2     0.900000E-01   1.00800           0
     11085 MEMB     81       DOPC     C23      CTL2    -0.180000       12.0110           0
     11086 MEMB     81       DOPC     H3R      HAL2     0.900000E-01   1.00800           0
     11087 MEMB     81       DOPC     H3S      HAL2     0.900000E-01   1.00800           0
     11088 MEMB     81       DOPC     C24      CTL2    -0.180000       12.0110           0
     11089 MEMB     81       DOPC     H4R      HAL2     0.900000E-01   1.00800           0
     11090 MEMB     81       DOPC     H4S      HAL2     0.900000E-01   1.00800           0
     11091 MEMB     81       DOPC     C25      CTL2    -0.180000       12.0110           0
     11092 MEMB     81       DOPC     H5R      HAL2     0.900000E-01   1.00800           0
     11093 MEMB     81       DOPC     H5S      HAL2     0.900000E-01   1.00800           0
     11094 MEMB     81       DOPC     C26      CTL2    -0.180000       12.0110           0
     11095 MEMB     81       DOPC     H6R      HAL2     0.900000E-01   1.00800           0
     11096 MEMB     81       DOPC     H6S      HAL2     0.900000E-01   1.00800           0
     11097 MEMB     81       DOPC     C27      CTL2    -0.180000       12.0110           0
     11098 MEMB     81       DOPC     H7R      HAL2     0.900000E-01   1.00800           0
     11099 MEMB     81       DOPC     H7S      HAL2     0.900000E-01   1.00800           0
     11100 MEMB     81       DOPC     C28      CTL2    -0.180000       12.0110           0
     11101 MEMB     81       DOPC     H8R      HAL2     0.900000E-01   1.00800           0
     11102 MEMB     81       DOPC     H8S      HAL2     0.900000E-01   1.00800           0
     11103 MEMB     81       DOPC     C29      CEL1    -0.150000       12.0110           0
     11104 MEMB     81       DOPC     H9R      HEL1     0.150000       1.00800           0
     11105 MEMB     81       DOPC     C210     CEL1    -0.150000       12.0110           0
     11106 MEMB     81       DOPC     H10R     HEL1     0.150000       1.00800           0
     11107 MEMB     81       DOPC     C211     CTL2    -0.180000       12.0110           0
     11108 MEMB     81       DOPC     H11R     HAL2     0.900000E-01   1.00800           0
     11109 MEMB     81       DOPC     H11S     HAL2     0.900000E-01   1.00800           0
     11110 MEMB     81       DOPC     C212     CTL2    -0.180000       12.0110           0
     11111 MEMB     81       DOPC     H12R     HAL2     0.900000E-01   1.00800           0
     11112 MEMB     81       DOPC     H12S     HAL2     0.900000E-01   1.00800           0
     11113 MEMB     81       DOPC     C213     CTL2    -0.180000       12.0110           0
     11114 MEMB     81       DOPC     H13R     HAL2     0.900000E-01   1.00800           0
     11115 MEMB     81       DOPC     H13S     HAL2     0.900000E-01   1.00800           0
     11116 MEMB     81       DOPC     C214     CTL2    -0.180000       12.0110           0
     11117 MEMB     81       DOPC     H14R     HAL2     0.900000E-01   1.00800           0
     11118 MEMB     81       DOPC     H14S     HAL2     0.900000E-01   1.00800           0
     11119 MEMB     81       DOPC     C215     CTL2    -0.180000       12.0110           0
     11120 MEMB     81       DOPC     H15R     HAL2     0.900000E-01   1.00800           0
     11121 MEMB     81       DOPC     H15S     HAL2     0.900000E-01   1.00800           0
     11122 MEMB     81       DOPC     C216     CTL2    -0.180000       12.0110           0
     11123 MEMB     81       DOPC     H16R     HAL2     0.900000E-01   1.00800           0
     11124 MEMB     81       DOPC     H16S     HAL2     0.900000E-01   1.00800           0
     11125 MEMB     81       DOPC     C217     CTL2    -0.180000       12.0110           0
     11126 MEMB     81       DOPC     H17R     HAL2     0.900000E-01   1.00800           0
     11127 MEMB     81       DOPC     H17S     HAL2     0.900000E-01   1.00800           0
     11128 MEMB     81       DOPC     C218     CTL3    -0.270000       12.0110           0
     11129 MEMB     81       DOPC     H18R     HAL3     0.900000E-01   1.00800           0
     11130 MEMB     81       DOPC     H18S     HAL3     0.900000E-01   1.00800           0
     11131 MEMB     81       DOPC     H18T     HAL3     0.900000E-01   1.00800           0
     11132 MEMB     81       DOPC     C33      CTL2    -0.180000       12.0110           0
     11133 MEMB     81       DOPC     H3X      HAL2     0.900000E-01   1.00800           0
     11134 MEMB     81       DOPC     H3Y      HAL2     0.900000E-01   1.00800           0
     11135 MEMB     81       DOPC     C34      CTL2    -0.180000       12.0110           0
     11136 MEMB     81       DOPC     H4X      HAL2     0.900000E-01   1.00800           0
     11137 MEMB     81       DOPC     H4Y      HAL2     0.900000E-01   1.00800           0
     11138 MEMB     81       DOPC     C35      CTL2    -0.180000       12.0110           0
     11139 MEMB     81       DOPC     H5X      HAL2     0.900000E-01   1.00800           0
     11140 MEMB     81       DOPC     H5Y      HAL2     0.900000E-01   1.00800           0
     11141 MEMB     81       DOPC     C36      CTL2    -0.180000       12.0110           0
     11142 MEMB     81       DOPC     H6X      HAL2     0.900000E-01   1.00800           0
     11143 MEMB     81       DOPC     H6Y      HAL2     0.900000E-01   1.00800           0
     11144 MEMB     81       DOPC     C37      CTL2    -0.180000       12.0110           0
     11145 MEMB     81       DOPC     H7X      HAL2     0.900000E-01   1.00800           0
     11146 MEMB     81       DOPC     H7Y      HAL2     0.900000E-01   1.00800           0
     11147 MEMB     81       DOPC     C38      CTL2    -0.180000       12.0110           0
     11148 MEMB     81       DOPC     H8X      HAL2     0.900000E-01   1.00800           0
     11149 MEMB     81       DOPC     H8Y      HAL2     0.900000E-01   1.00800           0
     11150 MEMB     81       DOPC     C39      CEL1    -0.150000       12.0110           0
     11151 MEMB     81       DOPC     H9X      HEL1     0.150000       1.00800           0
     11152 MEMB     81       DOPC     C310     CEL1    -0.150000       12.0110           0
     11153 MEMB     81       DOPC     H10X     HEL1     0.150000       1.00800           0
     11154 MEMB     81       DOPC     C311     CTL2    -0.180000       12.0110           0
     11155 MEMB     81       DOPC     H11X     HAL2     0.900000E-01   1.00800           0
     11156 MEMB     81       DOPC     H11Y     HAL2     0.900000E-01   1.00800           0
     11157 MEMB     81       DOPC     C312     CTL2    -0.180000       12.0110           0
     11158 MEMB     81       DOPC     H12X     HAL2     0.900000E-01   1.00800           0
     11159 MEMB     81       DOPC     H12Y     HAL2     0.900000E-01   1.00800           0
     11160 MEMB     81       DOPC     C313     CTL2    -0.180000       12.0110           0
     11161 MEMB     81       DOPC     H13X     HAL2     0.900000E-01   1.00800           0
     11162 MEMB     81       DOPC     H13Y     HAL2     0.900000E-01   1.00800           0
     11163 MEMB     81       DOPC     C314     CTL2    -0.180000       12.0110           0
     11164 MEMB     81       DOPC     H14X     HAL2     0.900000E-01   1.00800           0
     11165 MEMB     81       DOPC     H14Y     HAL2     0.900000E-01   1.00800           0
     11166 MEMB     81       DOPC     C315     CTL2    -0.180000       12.0110           0
     11167 MEMB     81       DOPC     H15X     HAL2     0.900000E-01   1.00800           0
     11168 MEMB     81       DOPC     H15Y     HAL2     0.900000E-01   1.00800           0
     11169 MEMB     81       DOPC     C316     CTL2    -0.180000       12.0110           0
     11170 MEMB     81       DOPC     H16X     HAL2     0.900000E-01   1.00800           0
     11171 MEMB     81       DOPC     H16Y     HAL2     0.900000E-01   1.00800           0
     11172 MEMB     81       DOPC     C317     CTL2    -0.180000       12.0110           0
     11173 MEMB     81       DOPC     H17X     HAL2     0.900000E-01   1.00800           0
     11174 MEMB     81       DOPC     H17Y     HAL2     0.900000E-01   1.00800           0
     11175 MEMB     81       DOPC     C318     CTL3    -0.270000       12.0110           0
     11176 MEMB     81       DOPC     H18X     HAL3     0.900000E-01   1.00800           0
     11177 MEMB     81       DOPC     H18Y     HAL3     0.900000E-01   1.00800           0
     11178 MEMB     81       DOPC     H18Z     HAL3     0.900000E-01   1.00800           0
     11179 MEMB     82       DOPC     N        NTL     -0.600000       14.0070           0
     11180 MEMB     82       DOPC     C12      CTL2    -0.100000       12.0110           0
     11181 MEMB     82       DOPC     H12A     HL       0.250000       1.00800           0
     11182 MEMB     82       DOPC     H12B     HL       0.250000       1.00800           0
     11183 MEMB     82       DOPC     C13      CTL5    -0.350000       12.0110           0
     11184 MEMB     82       DOPC     H13A     HL       0.250000       1.00800           0
     11185 MEMB     82       DOPC     H13B     HL       0.250000       1.00800           0
     11186 MEMB     82       DOPC     H13C     HL       0.250000       1.00800           0
     11187 MEMB     82       DOPC     C14      CTL5    -0.350000       12.0110           0
     11188 MEMB     82       DOPC     H14A     HL       0.250000       1.00800           0
     11189 MEMB     82       DOPC     H14B     HL       0.250000       1.00800           0
     11190 MEMB     82       DOPC     H14C     HL       0.250000       1.00800           0
     11191 MEMB     82       DOPC     C15      CTL5    -0.350000       12.0110           0
     11192 MEMB     82       DOPC     H15A     HL       0.250000       1.00800           0
     11193 MEMB     82       DOPC     H15B     HL       0.250000       1.00800           0
     11194 MEMB     82       DOPC     H15C     HL       0.250000       1.00800           0
     11195 MEMB     82       DOPC     C11      CTL2    -0.800000E-01   12.0110           0
     11196 MEMB     82       DOPC     H11A     HAL2     0.900000E-01   1.00800           0
     11197 MEMB     82       DOPC     H11B     HAL2     0.900000E-01   1.00800           0
     11198 MEMB     82       DOPC     P        PL        1.50000       30.9740           0
     11199 MEMB     82       DOPC     O13      O2L     -0.780000       15.9994           0
     11200 MEMB     82       DOPC     O14      O2L     -0.780000       15.9994           0
     11201 MEMB     82       DOPC     O12      OSLP    -0.570000       15.9994           0
     11202 MEMB     82       DOPC     O11      OSLP    -0.570000       15.9994           0
     11203 MEMB     82       DOPC     C1       CTL2    -0.800000E-01   12.0110           0
     11204 MEMB     82       DOPC     HA       HAL2     0.900000E-01   1.00800           0
     11205 MEMB     82       DOPC     HB       HAL2     0.900000E-01   1.00800           0
     11206 MEMB     82       DOPC     C2       CTL1     0.170000       12.0110           0
     11207 MEMB     82       DOPC     HS       HAL1     0.900000E-01   1.00800           0
     11208 MEMB     82       DOPC     O21      OSL     -0.490000       15.9994           0
     11209 MEMB     82       DOPC     C21      CL       0.900000       12.0110           0
     11210 MEMB     82       DOPC     O22      OBL     -0.630000       15.9994           0
     11211 MEMB     82       DOPC     C22      CTL2    -0.220000       12.0110           0
     11212 MEMB     82       DOPC     H2R      HAL2     0.900000E-01   1.00800           0
     11213 MEMB     82       DOPC     H2S      HAL2     0.900000E-01   1.00800           0
     11214 MEMB     82       DOPC     C3       CTL2     0.800000E-01   12.0110           0
     11215 MEMB     82       DOPC     HX       HAL2     0.900000E-01   1.00800           0
     11216 MEMB     82       DOPC     HY       HAL2     0.900000E-01   1.00800           0
     11217 MEMB     82       DOPC     O31      OSL     -0.490000       15.9994           0
     11218 MEMB     82       DOPC     C31      CL       0.900000       12.0110           0
     11219 MEMB     82       DOPC     O32      OBL     -0.630000       15.9994           0
     11220 MEMB     82       DOPC     C32      CTL2    -0.220000       12.0110           0
     11221 MEMB     82       DOPC     H2X      HAL2     0.900000E-01   1.00800           0
     11222 MEMB     82       DOPC     H2Y      HAL2     0.900000E-01   1.00800           0
     11223 MEMB     82       DOPC     C23      CTL2    -0.180000       12.0110           0
     11224 MEMB     82       DOPC     H3R      HAL2     0.900000E-01   1.00800           0
     11225 MEMB     82       DOPC     H3S      HAL2     0.900000E-01   1.00800           0
     11226 MEMB     82       DOPC     C24      CTL2    -0.180000       12.0110           0
     11227 MEMB     82       DOPC     H4R      HAL2     0.900000E-01   1.00800           0
     11228 MEMB     82       DOPC     H4S      HAL2     0.900000E-01   1.00800           0
     11229 MEMB     82       DOPC     C25      CTL2    -0.180000       12.0110           0
     11230 MEMB     82       DOPC     H5R      HAL2     0.900000E-01   1.00800           0
     11231 MEMB     82       DOPC     H5S      HAL2     0.900000E-01   1.00800           0
     11232 MEMB     82       DOPC     C26      CTL2    -0.180000       12.0110           0
     11233 MEMB     82       DOPC     H6R      HAL2     0.900000E-01   1.00800           0
     11234 MEMB     82       DOPC     H6S      HAL2     0.900000E-01   1.00800           0
     11235 MEMB     82       DOPC     C27      CTL2    -0.180000       12.0110           0
     11236 MEMB     82       DOPC     H7R      HAL2     0.900000E-01   1.00800           0
     11237 MEMB     82       DOPC     H7S      HAL2     0.900000E-01   1.00800           0
     11238 MEMB     82       DOPC     C28      CTL2    -0.180000       12.0110           0
     11239 MEMB     82       DOPC     H8R      HAL2     0.900000E-01   1.00800           0
     11240 MEMB     82       DOPC     H8S      HAL2     0.900000E-01   1.00800           0
     11241 MEMB     82       DOPC     C29      CEL1    -0.150000       12.0110           0
     11242 MEMB     82       DOPC     H9R      HEL1     0.150000       1.00800           0
     11243 MEMB     82       DOPC     C210     CEL1    -0.150000       12.0110           0
     11244 MEMB     82       DOPC     H10R     HEL1     0.150000       1.00800           0
     11245 MEMB     82       DOPC     C211     CTL2    -0.180000       12.0110           0
     11246 MEMB     82       DOPC     H11R     HAL2     0.900000E-01   1.00800           0
     11247 MEMB     82       DOPC     H11S     HAL2     0.900000E-01   1.00800           0
     11248 MEMB     82       DOPC     C212     CTL2    -0.180000       12.0110           0
     11249 MEMB     82       DOPC     H12R     HAL2     0.900000E-01   1.00800           0
     11250 MEMB     82       DOPC     H12S     HAL2     0.900000E-01   1.00800           0
     11251 MEMB     82       DOPC     C213     CTL2    -0.180000       12.0110           0
     11252 MEMB     82       DOPC     H13R     HAL2     0.900000E-01   1.00800           0
     11253 MEMB     82       DOPC     H13S     HAL2     0.900000E-01   1.00800           0
     11254 MEMB     82       DOPC     C214     CTL2    -0.180000       12.0110           0
     11255 MEMB     82       DOPC     H14R     HAL2     0.900000E-01   1.00800           0
     11256 MEMB     82       DOPC     H14S     HAL2     0.900000E-01   1.00800           0
     11257 MEMB     82       DOPC     C215     CTL2    -0.180000       12.0110           0
     11258 MEMB     82       DOPC     H15R     HAL2     0.900000E-01   1.00800           0
     11259 MEMB     82       DOPC     H15S     HAL2     0.900000E-01   1.00800           0
     11260 MEMB     82       DOPC     C216     CTL2    -0.180000       12.0110           0
     11261 MEMB     82       DOPC     H16R     HAL2     0.900000E-01   1.00800           0
     11262 MEMB     82       DOPC     H16S     HAL2     0.900000E-01   1.00800           0
     11263 MEMB     82       DOPC     C217     CTL2    -0.180000       12.0110           0
     11264 MEMB     82       DOPC     H17R     HAL2     0.900000E-01   1.00800           0
     11265 MEMB     82       DOPC     H17S     HAL2     0.900000E-01   1.00800           0
     11266 MEMB     82       DOPC     C218     CTL3    -0.270000       12.0110           0
     11267 MEMB     82       DOPC     H18R     HAL3     0.900000E-01   1.00800           0
     11268 MEMB     82       DOPC     H18S     HAL3     0.900000E-01   1.00800           0
     11269 MEMB     82       DOPC     H18T     HAL3     0.900000E-01   1.00800           0
     11270 MEMB     82       DOPC     C33      CTL2    -0.180000       12.0110           0
     11271 MEMB     82       DOPC     H3X      HAL2     0.900000E-01   1.00800           0
     11272 MEMB     82       DOPC     H3Y      HAL2     0.900000E-01   1.00800           0
     11273 MEMB     82       DOPC     C34      CTL2    -0.180000       12.0110           0
     11274 MEMB     82       DOPC     H4X      HAL2     0.900000E-01   1.00800           0
     11275 MEMB     82       DOPC     H4Y      HAL2     0.900000E-01   1.00800           0
     11276 MEMB     82       DOPC     C35      CTL2    -0.180000       12.0110           0
     11277 MEMB     82       DOPC     H5X      HAL2     0.900000E-01   1.00800           0
     11278 MEMB     82       DOPC     H5Y      HAL2     0.900000E-01   1.00800           0
     11279 MEMB     82       DOPC     C36      CTL2    -0.180000       12.0110           0
     11280 MEMB     82       DOPC     H6X      HAL2     0.900000E-01   1.00800           0
     11281 MEMB     82       DOPC     H6Y      HAL2     0.900000E-01   1.00800           0
     11282 MEMB     82       DOPC     C37      CTL2    -0.180000       12.0110           0
     11283 MEMB     82       DOPC     H7X      HAL2     0.900000E-01   1.00800           0
     11284 MEMB     82       DOPC     H7Y      HAL2     0.900000E-01   1.00800           0
     11285 MEMB     82       DOPC     C38      CTL2    -0.180000       12.0110           0
     11286 MEMB     82       DOPC     H8X      HAL2     0.900000E-01   1.00800           0
     11287 MEMB     82       DOPC     H8Y      HAL2     0.900000E-01   1.00800           0
     11288 MEMB     82       DOPC     C39      CEL1    -0.150000       12.0110           0
     11289 MEMB     82       DOPC     H9X      HEL1     0.150000       1.00800           0
     11290 MEMB     82       DOPC     C310     CEL1    -0.150000       12.0110           0
     11291 MEMB     82       DOPC     H10X     HEL1     0.150000       1.00800           0
     11292 MEMB     82       DOPC     C311     CTL2    -0.180000       12.0110           0
     11293 MEMB     82       DOPC     H11X     HAL2     0.900000E-01   1.00800           0
     11294 MEMB     82       DOPC     H11Y     HAL2     0.900000E-01   1.00800           0
     11295 MEMB     82       DOPC     C312     CTL2    -0.180000       12.0110           0
     11296 MEMB     82       DOPC     H12X     HAL2     0.900000E-01   1.00800           0
     11297 MEMB     82       DOPC     H12Y     HAL2     0.900000E-01   1.00800           0
     11298 MEMB     82       DOPC     C313     CTL2    -0.180000       12.0110           0
     11299 MEMB     82       DOPC     H13X     HAL2     0.900000E-01   1.00800           0
     11300 MEMB     82       DOPC     H13Y     HAL2     0.900000E-01   1.00800           0
     11301 MEMB     82       DOPC     C314     CTL2    -0.180000       12.0110           0
     11302 MEMB     82       DOPC     H14X     HAL2     0.900000E-01   1.00800           0
     11303 MEMB     82       DOPC     H14Y     HAL2     0.900000E-01   1.00800           0
     11304 MEMB     82       DOPC     C315     CTL2    -0.180000       12.0110           0
     11305 MEMB     82       DOPC     H15X     HAL2     0.900000E-01   1.00800           0
     11306 MEMB     82       DOPC     H15Y     HAL2     0.900000E-01   1.00800           0
     11307 MEMB     82       DOPC     C316     CTL2    -0.180000       12.0110           0
     11308 MEMB     82       DOPC     H16X     HAL2     0.900000E-01   1.00800           0
     11309 MEMB     82       DOPC     H16Y     HAL2     0.900000E-01   1.00800           0
     11310 MEMB     82       DOPC     C317     CTL2    -0.180000       12.0110           0
     11311 MEMB     82       DOPC     H17X     HAL2     0.900000E-01   1.00800           0
     11312 MEMB     82       DOPC     H17Y     HAL2     0.900000E-01   1.00800           0
     11313 MEMB     82       DOPC     C318     CTL3    -0.270000       12.0110           0
     11314 MEMB     82       DOPC     H18X     HAL3     0.900000E-01   1.00800           0
     11315 MEMB     82       DOPC     H18Y     HAL3     0.900000E-01   1.00800           0
     11316 MEMB     82       DOPC     H18Z     HAL3     0.900000E-01   1.00800           0
     11317 MEMB     83       DOPC     N        NTL     -0.600000       14.0070           0
     11318 MEMB     83       DOPC     C12      CTL2    -0.100000       12.0110           0
     11319 MEMB     83       DOPC     H12A     HL       0.250000       1.00800           0
     11320 MEMB     83       DOPC     H12B     HL       0.250000       1.00800           0
     11321 MEMB     83       DOPC     C13      CTL5    -0.350000       12.0110           0
     11322 MEMB     83       DOPC     H13A     HL       0.250000       1.00800           0
     11323 MEMB     83       DOPC     H13B     HL       0.250000       1.00800           0
     11324 MEMB     83       DOPC     H13C     HL       0.250000       1.00800           0
     11325 MEMB     83       DOPC     C14      CTL5    -0.350000       12.0110           0
     11326 MEMB     83       DOPC     H14A     HL       0.250000       1.00800           0
     11327 MEMB     83       DOPC     H14B     HL       0.250000       1.00800           0
     11328 MEMB     83       DOPC     H14C     HL       0.250000       1.00800           0
     11329 MEMB     83       DOPC     C15      CTL5    -0.350000       12.0110           0
     11330 MEMB     83       DOPC     H15A     HL       0.250000       1.00800           0
     11331 MEMB     83       DOPC     H15B     HL       0.250000       1.00800           0
     11332 MEMB     83       DOPC     H15C     HL       0.250000       1.00800           0
     11333 MEMB     83       DOPC     C11      CTL2    -0.800000E-01   12.0110           0
     11334 MEMB     83       DOPC     H11A     HAL2     0.900000E-01   1.00800           0
     11335 MEMB     83       DOPC     H11B     HAL2     0.900000E-01   1.00800           0
     11336 MEMB     83       DOPC     P        PL        1.50000       30.9740           0
     11337 MEMB     83       DOPC     O13      O2L     -0.780000       15.9994           0
     11338 MEMB     83       DOPC     O14      O2L     -0.780000       15.9994           0
     11339 MEMB     83       DOPC     O12      OSLP    -0.570000       15.9994           0
     11340 MEMB     83       DOPC     O11      OSLP    -0.570000       15.9994           0
     11341 MEMB     83       DOPC     C1       CTL2    -0.800000E-01   12.0110           0
     11342 MEMB     83       DOPC     HA       HAL2     0.900000E-01   1.00800           0
     11343 MEMB     83       DOPC     HB       HAL2     0.900000E-01   1.00800           0
     11344 MEMB     83       DOPC     C2       CTL1     0.170000       12.0110           0
     11345 MEMB     83       DOPC     HS       HAL1     0.900000E-01   1.00800           0
     11346 MEMB     83       DOPC     O21      OSL     -0.490000       15.9994           0
     11347 MEMB     83       DOPC     C21      CL       0.900000       12.0110           0
     11348 MEMB     83       DOPC     O22      OBL     -0.630000       15.9994           0
     11349 MEMB     83       DOPC     C22      CTL2    -0.220000       12.0110           0
     11350 MEMB     83       DOPC     H2R      HAL2     0.900000E-01   1.00800           0
     11351 MEMB     83       DOPC     H2S      HAL2     0.900000E-01   1.00800           0
     11352 MEMB     83       DOPC     C3       CTL2     0.800000E-01   12.0110           0
     11353 MEMB     83       DOPC     HX       HAL2     0.900000E-01   1.00800           0
     11354 MEMB     83       DOPC     HY       HAL2     0.900000E-01   1.00800           0
     11355 MEMB     83       DOPC     O31      OSL     -0.490000       15.9994           0
     11356 MEMB     83       DOPC     C31      CL       0.900000       12.0110           0
     11357 MEMB     83       DOPC     O32      OBL     -0.630000       15.9994           0
     11358 MEMB     83       DOPC     C32      CTL2    -0.220000       12.0110           0
     11359 MEMB     83       DOPC     H2X      HAL2     0.900000E-01   1.00800           0
     11360 MEMB     83       DOPC     H2Y      HAL2     0.900000E-01   1.00800           0
     11361 MEMB     83       DOPC     C23      CTL2    -0.180000       12.0110           0
     11362 MEMB     83       DOPC     H3R      HAL2     0.900000E-01   1.00800           0
     11363 MEMB     83       DOPC     H3S      HAL2     0.900000E-01   1.00800           0
     11364 MEMB     83       DOPC     C24      CTL2    -0.180000       12.0110           0
     11365 MEMB     83       DOPC     H4R      HAL2     0.900000E-01   1.00800           0
     11366 MEMB     83       DOPC     H4S      HAL2     0.900000E-01   1.00800           0
     11367 MEMB     83       DOPC     C25      CTL2    -0.180000       12.0110           0
     11368 MEMB     83       DOPC     H5R      HAL2     0.900000E-01   1.00800           0
     11369 MEMB     83       DOPC     H5S      HAL2     0.900000E-01   1.00800           0
     11370 MEMB     83       DOPC     C26      CTL2    -0.180000       12.0110           0
     11371 MEMB     83       DOPC     H6R      HAL2     0.900000E-01   1.00800           0
     11372 MEMB     83       DOPC     H6S      HAL2     0.900000E-01   1.00800           0
     11373 MEMB     83       DOPC     C27      CTL2    -0.180000       12.0110           0
     11374 MEMB     83       DOPC     H7R      HAL2     0.900000E-01   1.00800           0
     11375 MEMB     83       DOPC     H7S      HAL2     0.900000E-01   1.00800           0
     11376 MEMB     83       DOPC     C28      CTL2    -0.180000       12.0110           0
     11377 MEMB     83       DOPC     H8R      HAL2     0.900000E-01   1.00800           0
     11378 MEMB     83       DOPC     H8S      HAL2     0.900000E-01   1.00800           0
     11379 MEMB     83       DOPC     C29      CEL1    -0.150000       12.0110           0
     11380 MEMB     83       DOPC     H9R      HEL1     0.150000       1.00800           0
     11381 MEMB     83       DOPC     C210     CEL1    -0.150000       12.0110           0
     11382 MEMB     83       DOPC     H10R     HEL1     0.150000       1.00800           0
     11383 MEMB     83       DOPC     C211     CTL2    -0.180000       12.0110           0
     11384 MEMB     83       DOPC     H11R     HAL2     0.900000E-01   1.00800           0
     11385 MEMB     83       DOPC     H11S     HAL2     0.900000E-01   1.00800           0
     11386 MEMB     83       DOPC     C212     CTL2    -0.180000       12.0110           0
     11387 MEMB     83       DOPC     H12R     HAL2     0.900000E-01   1.00800           0
     11388 MEMB     83       DOPC     H12S     HAL2     0.900000E-01   1.00800           0
     11389 MEMB     83       DOPC     C213     CTL2    -0.180000       12.0110           0
     11390 MEMB     83       DOPC     H13R     HAL2     0.900000E-01   1.00800           0
     11391 MEMB     83       DOPC     H13S     HAL2     0.900000E-01   1.00800           0
     11392 MEMB     83       DOPC     C214     CTL2    -0.180000       12.0110           0
     11393 MEMB     83       DOPC     H14R     HAL2     0.900000E-01   1.00800           0
     11394 MEMB     83       DOPC     H14S     HAL2     0.900000E-01   1.00800           0
     11395 MEMB     83       DOPC     C215     CTL2    -0.180000       12.0110           0
     11396 MEMB     83       DOPC     H15R     HAL2     0.900000E-01   1.00800           0
     11397 MEMB     83       DOPC     H15S     HAL2     0.900000E-01   1.00800           0
     11398 MEMB     83       DOPC     C216     CTL2    -0.180000       12.0110           0
     11399 MEMB     83       DOPC     H16R     HAL2     0.900000E-01   1.00800           0
     11400 MEMB     83       DOPC     H16S     HAL2     0.900000E-01   1.00800           0
     11401 MEMB     83       DOPC     C217     CTL2    -0.180000       12.0110           0
     11402 MEMB     83       DOPC     H17R     HAL2     0.900000E-01   1.00800           0
     11403 MEMB     83       DOPC     H17S     HAL2     0.900000E-01   1.00800           0
     11404 MEMB     83       DOPC     C218     CTL3    -0.270000       12.0110           0
     11405 MEMB     83       DOPC     H18R     HAL3     0.900000E-01   1.00800           0
     11406 MEMB     83       DOPC     H18S     HAL3     0.900000E-01   1.00800           0
     11407 MEMB     83       DOPC     H18T     HAL3     0.900000E-01   1.00800           0
     11408 MEMB     83       DOPC     C33      CTL2    -0.180000       12.0110           0
     11409 MEMB     83       DOPC     H3X      HAL2     0.900000E-01   1.00800           0
     11410 MEMB     83       DOPC     H3Y      HAL2     0.900000E-01   1.00800           0
     11411 MEMB     83       DOPC     C34      CTL2    -0.180000       12.0110           0
     11412 MEMB     83       DOPC     H4X      HAL2     0.900000E-01   1.00800           0
     11413 MEMB     83       DOPC     H4Y      HAL2     0.900000E-01   1.00800           0
     11414 MEMB     83       DOPC     C35      CTL2    -0.180000       12.0110           0
     11415 MEMB     83       DOPC     H5X      HAL2     0.900000E-01   1.00800           0
     11416 MEMB     83       DOPC     H5Y      HAL2     0.900000E-01   1.00800           0
     11417 MEMB     83       DOPC     C36      CTL2    -0.180000       12.0110           0
     11418 MEMB     83       DOPC     H6X      HAL2     0.900000E-01   1.00800           0
     11419 MEMB     83       DOPC     H6Y      HAL2     0.900000E-01   1.00800           0
     11420 MEMB     83       DOPC     C37      CTL2    -0.180000       12.0110           0
     11421 MEMB     83       DOPC     H7X      HAL2     0.900000E-01   1.00800           0
     11422 MEMB     83       DOPC     H7Y      HAL2     0.900000E-01   1.00800           0
     11423 MEMB     83       DOPC     C38      CTL2    -0.180000       12.0110           0
     11424 MEMB     83       DOPC     H8X      HAL2     0.900000E-01   1.00800           0
     11425 MEMB     83       DOPC     H8Y      HAL2     0.900000E-01   1.00800           0
     11426 MEMB     83       DOPC     C39      CEL1    -0.150000       12.0110           0
     11427 MEMB     83       DOPC     H9X      HEL1     0.150000       1.00800           0
     11428 MEMB     83       DOPC     C310     CEL1    -0.150000       12.0110           0
     11429 MEMB     83       DOPC     H10X     HEL1     0.150000       1.00800           0
     11430 MEMB     83       DOPC     C311     CTL2    -0.180000       12.0110           0
     11431 MEMB     83       DOPC     H11X     HAL2     0.900000E-01   1.00800           0
     11432 MEMB     83       DOPC     H11Y     HAL2     0.900000E-01   1.00800           0
     11433 MEMB     83       DOPC     C312     CTL2    -0.180000       12.0110           0
     11434 MEMB     83       DOPC     H12X     HAL2     0.900000E-01   1.00800           0
     11435 MEMB     83       DOPC     H12Y     HAL2     0.900000E-01   1.00800           0
     11436 MEMB     83       DOPC     C313     CTL2    -0.180000       12.0110           0
     11437 MEMB     83       DOPC     H13X     HAL2     0.900000E-01   1.00800           0
     11438 MEMB     83       DOPC     H13Y     HAL2     0.900000E-01   1.00800           0
     11439 MEMB     83       DOPC     C314     CTL2    -0.180000       12.0110           0
     11440 MEMB     83       DOPC     H14X     HAL2     0.900000E-01   1.00800           0
     11441 MEMB     83       DOPC     H14Y     HAL2     0.900000E-01   1.00800           0
     11442 MEMB     83       DOPC     C315     CTL2    -0.180000       12.0110           0
     11443 MEMB     83       DOPC     H15X     HAL2     0.900000E-01   1.00800           0
     11444 MEMB     83       DOPC     H15Y     HAL2     0.900000E-01   1.00800           0
     11445 MEMB     83       DOPC     C316     CTL2    -0.180000       12.0110           0
     11446 MEMB     83       DOPC     H16X     HAL2     0.900000E-01   1.00800           0
     11447 MEMB     83       DOPC     H16Y     HAL2     0.900000E-01   1.00800           0
     11448 MEMB     83       DOPC     C317     CTL2    -0.180000       12.0110           0
     11449 MEMB     83       DOPC     H17X     HAL2     0.900000E-01   1.00800           0
     11450 MEMB     83       DOPC     H17Y     HAL2     0.900000E-01   1.00800           0
     11451 MEMB     83       DOPC     C318     CTL3    -0.270000       12.0110           0
     11452 MEMB     83       DOPC     H18X     HAL3     0.900000E-01   1.00800           0
     11453 MEMB     83       DOPC     H18Y     HAL3     0.900000E-01   1.00800           0
     11454 MEMB     83       DOPC     H18Z     HAL3     0.900000E-01   1.00800           0
     11455 MEMB     84       DOPC     N        NTL     -0.600000       14.0070           0
     11456 MEMB     84       DOPC     C12      CTL2    -0.100000       12.0110           0
     11457 MEMB     84       DOPC     H12A     HL       0.250000       1.00800           0
     11458 MEMB     84       DOPC     H12B     HL       0.250000       1.00800           0
     11459 MEMB     84       DOPC     C13      CTL5    -0.350000       12.0110           0
     11460 MEMB     84       DOPC     H13A     HL       0.250000       1.00800           0
     11461 MEMB     84       DOPC     H13B     HL       0.250000       1.00800           0
     11462 MEMB     84       DOPC     H13C     HL       0.250000       1.00800           0
     11463 MEMB     84       DOPC     C14      CTL5    -0.350000       12.0110           0
     11464 MEMB     84       DOPC     H14A     HL       0.250000       1.00800           0
     11465 MEMB     84       DOPC     H14B     HL       0.250000       1.00800           0
     11466 MEMB     84       DOPC     H14C     HL       0.250000       1.00800           0
     11467 MEMB     84       DOPC     C15      CTL5    -0.350000       12.0110           0
     11468 MEMB     84       DOPC     H15A     HL       0.250000       1.00800           0
     11469 MEMB     84       DOPC     H15B     HL       0.250000       1.00800           0
     11470 MEMB     84       DOPC     H15C     HL       0.250000       1.00800           0
     11471 MEMB     84       DOPC     C11      CTL2    -0.800000E-01   12.0110           0
     11472 MEMB     84       DOPC     H11A     HAL2     0.900000E-01   1.00800           0
     11473 MEMB     84       DOPC     H11B     HAL2     0.900000E-01   1.00800           0
     11474 MEMB     84       DOPC     P        PL        1.50000       30.9740           0
     11475 MEMB     84       DOPC     O13      O2L     -0.780000       15.9994           0
     11476 MEMB     84       DOPC     O14      O2L     -0.780000       15.9994           0
     11477 MEMB     84       DOPC     O12      OSLP    -0.570000       15.9994           0
     11478 MEMB     84       DOPC     O11      OSLP    -0.570000       15.9994           0
     11479 MEMB     84       DOPC     C1       CTL2    -0.800000E-01   12.0110           0
     11480 MEMB     84       DOPC     HA       HAL2     0.900000E-01   1.00800           0
     11481 MEMB     84       DOPC     HB       HAL2     0.900000E-01   1.00800           0
     11482 MEMB     84       DOPC     C2       CTL1     0.170000       12.0110           0
     11483 MEMB     84       DOPC     HS       HAL1     0.900000E-01   1.00800           0
     11484 MEMB     84       DOPC     O21      OSL     -0.490000       15.9994           0
     11485 MEMB     84       DOPC     C21      CL       0.900000       12.0110           0
     11486 MEMB     84       DOPC     O22      OBL     -0.630000       15.9994           0
     11487 MEMB     84       DOPC     C22      CTL2    -0.220000       12.0110           0
     11488 MEMB     84       DOPC     H2R      HAL2     0.900000E-01   1.00800           0
     11489 MEMB     84       DOPC     H2S      HAL2     0.900000E-01   1.00800           0
     11490 MEMB     84       DOPC     C3       CTL2     0.800000E-01   12.0110           0
     11491 MEMB     84       DOPC     HX       HAL2     0.900000E-01   1.00800           0
     11492 MEMB     84       DOPC     HY       HAL2     0.900000E-01   1.00800           0
     11493 MEMB     84       DOPC     O31      OSL     -0.490000       15.9994           0
     11494 MEMB     84       DOPC     C31      CL       0.900000       12.0110           0
     11495 MEMB     84       DOPC     O32      OBL     -0.630000       15.9994           0
     11496 MEMB     84       DOPC     C32      CTL2    -0.220000       12.0110           0
     11497 MEMB     84       DOPC     H2X      HAL2     0.900000E-01   1.00800           0
     11498 MEMB     84       DOPC     H2Y      HAL2     0.900000E-01   1.00800           0
     11499 MEMB     84       DOPC     C23      CTL2    -0.180000       12.0110           0
     11500 MEMB     84       DOPC     H3R      HAL2     0.900000E-01   1.00800           0
     11501 MEMB     84       DOPC     H3S      HAL2     0.900000E-01   1.00800           0
     11502 MEMB     84       DOPC     C24      CTL2    -0.180000       12.0110           0
     11503 MEMB     84       DOPC     H4R      HAL2     0.900000E-01   1.00800           0
     11504 MEMB     84       DOPC     H4S      HAL2     0.900000E-01   1.00800           0
     11505 MEMB     84       DOPC     C25      CTL2    -0.180000       12.0110           0
     11506 MEMB     84       DOPC     H5R      HAL2     0.900000E-01   1.00800           0
     11507 MEMB     84       DOPC     H5S      HAL2     0.900000E-01   1.00800           0
     11508 MEMB     84       DOPC     C26      CTL2    -0.180000       12.0110           0
     11509 MEMB     84       DOPC     H6R      HAL2     0.900000E-01   1.00800           0
     11510 MEMB     84       DOPC     H6S      HAL2     0.900000E-01   1.00800           0
     11511 MEMB     84       DOPC     C27      CTL2    -0.180000       12.0110           0
     11512 MEMB     84       DOPC     H7R      HAL2     0.900000E-01   1.00800           0
     11513 MEMB     84       DOPC     H7S      HAL2     0.900000E-01   1.00800           0
     11514 MEMB     84       DOPC     C28      CTL2    -0.180000       12.0110           0
     11515 MEMB     84       DOPC     H8R      HAL2     0.900000E-01   1.00800           0
     11516 MEMB     84       DOPC     H8S      HAL2     0.900000E-01   1.00800           0
     11517 MEMB     84       DOPC     C29      CEL1    -0.150000       12.0110           0
     11518 MEMB     84       DOPC     H9R      HEL1     0.150000       1.00800           0
     11519 MEMB     84       DOPC     C210     CEL1    -0.150000       12.0110           0
     11520 MEMB     84       DOPC     H10R     HEL1     0.150000       1.00800           0
     11521 MEMB     84       DOPC     C211     CTL2    -0.180000       12.0110           0
     11522 MEMB     84       DOPC     H11R     HAL2     0.900000E-01   1.00800           0
     11523 MEMB     84       DOPC     H11S     HAL2     0.900000E-01   1.00800           0
     11524 MEMB     84       DOPC     C212     CTL2    -0.180000       12.0110           0
     11525 MEMB     84       DOPC     H12R     HAL2     0.900000E-01   1.00800           0
     11526 MEMB     84       DOPC     H12S     HAL2     0.900000E-01   1.00800           0
     11527 MEMB     84       DOPC     C213     CTL2    -0.180000       12.0110           0
     11528 MEMB     84       DOPC     H13R     HAL2     0.900000E-01   1.00800           0
     11529 MEMB     84       DOPC     H13S     HAL2     0.900000E-01   1.00800           0
     11530 MEMB     84       DOPC     C214     CTL2    -0.180000       12.0110           0
     11531 MEMB     84       DOPC     H14R     HAL2     0.900000E-01   1.00800           0
     11532 MEMB     84       DOPC     H14S     HAL2     0.900000E-01   1.00800           0
     11533 MEMB     84       DOPC     C215     CTL2    -0.180000       12.0110           0
     11534 MEMB     84       DOPC     H15R     HAL2     0.900000E-01   1.00800           0
     11535 MEMB     84       DOPC     H15S     HAL2     0.900000E-01   1.00800           0
     11536 MEMB     84       DOPC     C216     CTL2    -0.180000       12.0110           0
     11537 MEMB     84       DOPC     H16R     HAL2     0.900000E-01   1.00800           0
     11538 MEMB     84       DOPC     H16S     HAL2     0.900000E-01   1.00800           0
     11539 MEMB     84       DOPC     C217     CTL2    -0.180000       12.0110           0
     11540 MEMB     84       DOPC     H17R     HAL2     0.900000E-01   1.00800           0
     11541 MEMB     84       DOPC     H17S     HAL2     0.900000E-01   1.00800           0
     11542 MEMB     84       DOPC     C218     CTL3    -0.270000       12.0110           0
     11543 MEMB     84       DOPC     H18R     HAL3     0.900000E-01   1.00800           0
     11544 MEMB     84       DOPC     H18S     HAL3     0.900000E-01   1.00800           0
     11545 MEMB     84       DOPC     H18T     HAL3     0.900000E-01   1.00800           0
     11546 MEMB     84       DOPC     C33      CTL2    -0.180000       12.0110           0
     11547 MEMB     84       DOPC     H3X      HAL2     0.900000E-01   1.00800           0
     11548 MEMB     84       DOPC     H3Y      HAL2     0.900000E-01   1.00800           0
     11549 MEMB     84       DOPC     C34      CTL2    -0.180000       12.0110           0
     11550 MEMB     84       DOPC     H4X      HAL2     0.900000E-01   1.00800           0
     11551 MEMB     84       DOPC     H4Y      HAL2     0.900000E-01   1.00800           0
     11552 MEMB     84       DOPC     C35      CTL2    -0.180000       12.0110           0
     11553 MEMB     84       DOPC     H5X      HAL2     0.900000E-01   1.00800           0
     11554 MEMB     84       DOPC     H5Y      HAL2     0.900000E-01   1.00800           0
     11555 MEMB     84       DOPC     C36      CTL2    -0.180000       12.0110           0
     11556 MEMB     84       DOPC     H6X      HAL2     0.900000E-01   1.00800           0
     11557 MEMB     84       DOPC     H6Y      HAL2     0.900000E-01   1.00800           0
     11558 MEMB     84       DOPC     C37      CTL2    -0.180000       12.0110           0
     11559 MEMB     84       DOPC     H7X      HAL2     0.900000E-01   1.00800           0
     11560 MEMB     84       DOPC     H7Y      HAL2     0.900000E-01   1.00800           0
     11561 MEMB     84       DOPC     C38      CTL2    -0.180000       12.0110           0
     11562 MEMB     84       DOPC     H8X      HAL2     0.900000E-01   1.00800           0
     11563 MEMB     84       DOPC     H8Y      HAL2     0.900000E-01   1.00800           0
     11564 MEMB     84       DOPC     C39      CEL1    -0.150000       12.0110           0
     11565 MEMB     84       DOPC     H9X      HEL1     0.150000       1.00800           0
     11566 MEMB     84       DOPC     C310     CEL1    -0.150000       12.0110           0
     11567 MEMB     84       DOPC     H10X     HEL1     0.150000       1.00800           0
     11568 MEMB     84       DOPC     C311     CTL2    -0.180000       12.0110           0
     11569 MEMB     84       DOPC     H11X     HAL2     0.900000E-01   1.00800           0
     11570 MEMB     84       DOPC     H11Y     HAL2     0.900000E-01   1.00800           0
     11571 MEMB     84       DOPC     C312     CTL2    -0.180000       12.0110           0
     11572 MEMB     84       DOPC     H12X     HAL2     0.900000E-01   1.00800           0
     11573 MEMB     84       DOPC     H12Y     HAL2     0.900000E-01   1.00800           0
     11574 MEMB     84       DOPC     C313     CTL2    -0.180000       12.0110           0
     11575 MEMB     84       DOPC     H13X     HAL2     0.900000E-01   1.00800           0
     11576 MEMB     84       DOPC     H13Y     HAL2     0.900000E-01   1.00800           0
     11577 MEMB     84       DOPC     C314     CTL2    -0.180000       12.0110           0
     11578 MEMB     84       DOPC     H14X     HAL2     0.900000E-01   1.00800           0
     11579 MEMB     84       DOPC     H14Y     HAL2     0.900000E-01   1.00800           0
     11580 MEMB     84       DOPC     C315     CTL2    -0.180000       12.0110           0
     11581 MEMB     84       DOPC     H15X     HAL2     0.900000E-01   1.00800           0
     11582 MEMB     84       DOPC     H15Y     HAL2     0.900000E-01   1.00800           0
     11583 MEMB     84       DOPC     C316     CTL2    -0.180000       12.0110           0
     11584 MEMB     84       DOPC     H16X     HAL2     0.900000E-01   1.00800           0
     11585 MEMB     84       DOPC     H16Y     HAL2     0.900000E-01   1.00800           0
     11586 MEMB     84       DOPC     C317     CTL2    -0.180000       12.0110           0
     11587 MEMB     84       DOPC     H17X     HAL2     0.900000E-01   1.00800           0
     11588 MEMB     84       DOPC     H17Y     HAL2     0.900000E-01   1.00800           0
     11589 MEMB     84       DOPC     C318     CTL3    -0.270000       12.0110           0
     11590 MEMB     84       DOPC     H18X     HAL3     0.900000E-01   1.00800           0
     11591 MEMB     84       DOPC     H18Y     HAL3     0.900000E-01   1.00800           0
     11592 MEMB     84       DOPC     H18Z     HAL3     0.900000E-01   1.00800           0
     11593 MEMB     85       DOPC     N        NTL     -0.600000       14.0070           0
     11594 MEMB     85       DOPC     C12      CTL2    -0.100000       12.0110           0
     11595 MEMB     85       DOPC     H12A     HL       0.250000       1.00800           0
     11596 MEMB     85       DOPC     H12B     HL       0.250000       1.00800           0
     11597 MEMB     85       DOPC     C13      CTL5    -0.350000       12.0110           0
     11598 MEMB     85       DOPC     H13A     HL       0.250000       1.00800           0
     11599 MEMB     85       DOPC     H13B     HL       0.250000       1.00800           0
     11600 MEMB     85       DOPC     H13C     HL       0.250000       1.00800           0
     11601 MEMB     85       DOPC     C14      CTL5    -0.350000       12.0110           0
     11602 MEMB     85       DOPC     H14A     HL       0.250000       1.00800           0
     11603 MEMB     85       DOPC     H14B     HL       0.250000       1.00800           0
     11604 MEMB     85       DOPC     H14C     HL       0.250000       1.00800           0
     11605 MEMB     85       DOPC     C15      CTL5    -0.350000       12.0110           0
     11606 MEMB     85       DOPC     H15A     HL       0.250000       1.00800           0
     11607 MEMB     85       DOPC     H15B     HL       0.250000       1.00800           0
     11608 MEMB     85       DOPC     H15C     HL       0.250000       1.00800           0
     11609 MEMB     85       DOPC     C11      CTL2    -0.800000E-01   12.0110           0
     11610 MEMB     85       DOPC     H11A     HAL2     0.900000E-01   1.00800           0
     11611 MEMB     85       DOPC     H11B     HAL2     0.900000E-01   1.00800           0
     11612 MEMB     85       DOPC     P        PL        1.50000       30.9740           0
     11613 MEMB     85       DOPC     O13      O2L     -0.780000       15.9994           0
     11614 MEMB     85       DOPC     O14      O2L     -0.780000       15.9994           0
     11615 MEMB     85       DOPC     O12      OSLP    -0.570000       15.9994           0
     11616 MEMB     85       DOPC     O11      OSLP    -0.570000       15.9994           0
     11617 MEMB     85       DOPC     C1       CTL2    -0.800000E-01   12.0110           0
     11618 MEMB     85       DOPC     HA       HAL2     0.900000E-01   1.00800           0
     11619 MEMB     85       DOPC     HB       HAL2     0.900000E-01   1.00800           0
     11620 MEMB     85       DOPC     C2       CTL1     0.170000       12.0110           0
     11621 MEMB     85       DOPC     HS       HAL1     0.900000E-01   1.00800           0
     11622 MEMB     85       DOPC     O21      OSL     -0.490000       15.9994           0
     11623 MEMB     85       DOPC     C21      CL       0.900000       12.0110           0
     11624 MEMB     85       DOPC     O22      OBL     -0.630000       15.9994           0
     11625 MEMB     85       DOPC     C22      CTL2    -0.220000       12.0110           0
     11626 MEMB     85       DOPC     H2R      HAL2     0.900000E-01   1.00800           0
     11627 MEMB     85       DOPC     H2S      HAL2     0.900000E-01   1.00800           0
     11628 MEMB     85       DOPC     C3       CTL2     0.800000E-01   12.0110           0
     11629 MEMB     85       DOPC     HX       HAL2     0.900000E-01   1.00800           0
     11630 MEMB     85       DOPC     HY       HAL2     0.900000E-01   1.00800           0
     11631 MEMB     85       DOPC     O31      OSL     -0.490000       15.9994           0
     11632 MEMB     85       DOPC     C31      CL       0.900000       12.0110           0
     11633 MEMB     85       DOPC     O32      OBL     -0.630000       15.9994           0
     11634 MEMB     85       DOPC     C32      CTL2    -0.220000       12.0110           0
     11635 MEMB     85       DOPC     H2X      HAL2     0.900000E-01   1.00800           0
     11636 MEMB     85       DOPC     H2Y      HAL2     0.900000E-01   1.00800           0
     11637 MEMB     85       DOPC     C23      CTL2    -0.180000       12.0110           0
     11638 MEMB     85       DOPC     H3R      HAL2     0.900000E-01   1.00800           0
     11639 MEMB     85       DOPC     H3S      HAL2     0.900000E-01   1.00800           0
     11640 MEMB     85       DOPC     C24      CTL2    -0.180000       12.0110           0
     11641 MEMB     85       DOPC     H4R      HAL2     0.900000E-01   1.00800           0
     11642 MEMB     85       DOPC     H4S      HAL2     0.900000E-01   1.00800           0
     11643 MEMB     85       DOPC     C25      CTL2    -0.180000       12.0110           0
     11644 MEMB     85       DOPC     H5R      HAL2     0.900000E-01   1.00800           0
     11645 MEMB     85       DOPC     H5S      HAL2     0.900000E-01   1.00800           0
     11646 MEMB     85       DOPC     C26      CTL2    -0.180000       12.0110           0
     11647 MEMB     85       DOPC     H6R      HAL2     0.900000E-01   1.00800           0
     11648 MEMB     85       DOPC     H6S      HAL2     0.900000E-01   1.00800           0
     11649 MEMB     85       DOPC     C27      CTL2    -0.180000       12.0110           0
     11650 MEMB     85       DOPC     H7R      HAL2     0.900000E-01   1.00800           0
     11651 MEMB     85       DOPC     H7S      HAL2     0.900000E-01   1.00800           0
     11652 MEMB     85       DOPC     C28      CTL2    -0.180000       12.0110           0
     11653 MEMB     85       DOPC     H8R      HAL2     0.900000E-01   1.00800           0
     11654 MEMB     85       DOPC     H8S      HAL2     0.900000E-01   1.00800           0
     11655 MEMB     85       DOPC     C29      CEL1    -0.150000       12.0110           0
     11656 MEMB     85       DOPC     H9R      HEL1     0.150000       1.00800           0
     11657 MEMB     85       DOPC     C210     CEL1    -0.150000       12.0110           0
     11658 MEMB     85       DOPC     H10R     HEL1     0.150000       1.00800           0
     11659 MEMB     85       DOPC     C211     CTL2    -0.180000       12.0110           0
     11660 MEMB     85       DOPC     H11R     HAL2     0.900000E-01   1.00800           0
     11661 MEMB     85       DOPC     H11S     HAL2     0.900000E-01   1.00800           0
     11662 MEMB     85       DOPC     C212     CTL2    -0.180000       12.0110           0
     11663 MEMB     85       DOPC     H12R     HAL2     0.900000E-01   1.00800           0
     11664 MEMB     85       DOPC     H12S     HAL2     0.900000E-01   1.00800           0
     11665 MEMB     85       DOPC     C213     CTL2    -0.180000       12.0110           0
     11666 MEMB     85       DOPC     H13R     HAL2     0.900000E-01   1.00800           0
     11667 MEMB     85       DOPC     H13S     HAL2     0.900000E-01   1.00800           0
     11668 MEMB     85       DOPC     C214     CTL2    -0.180000       12.0110           0
     11669 MEMB     85       DOPC     H14R     HAL2     0.900000E-01   1.00800           0
     11670 MEMB     85       DOPC     H14S     HAL2     0.900000E-01   1.00800           0
     11671 MEMB     85       DOPC     C215     CTL2    -0.180000       12.0110           0
     11672 MEMB     85       DOPC     H15R     HAL2     0.900000E-01   1.00800           0
     11673 MEMB     85       DOPC     H15S     HAL2     0.900000E-01   1.00800           0
     11674 MEMB     85       DOPC     C216     CTL2    -0.180000       12.0110           0
     11675 MEMB     85       DOPC     H16R     HAL2     0.900000E-01   1.00800           0
     11676 MEMB     85       DOPC     H16S     HAL2     0.900000E-01   1.00800           0
     11677 MEMB     85       DOPC     C217     CTL2    -0.180000       12.0110           0
     11678 MEMB     85       DOPC     H17R     HAL2     0.900000E-01   1.00800           0
     11679 MEMB     85       DOPC     H17S     HAL2     0.900000E-01   1.00800           0
     11680 MEMB     85       DOPC     C218     CTL3    -0.270000       12.0110           0
     11681 MEMB     85       DOPC     H18R     HAL3     0.900000E-01   1.00800           0
     11682 MEMB     85       DOPC     H18S     HAL3     0.900000E-01   1.00800           0
     11683 MEMB     85       DOPC     H18T     HAL3     0.900000E-01   1.00800           0
     11684 MEMB     85       DOPC     C33      CTL2    -0.180000       12.0110           0
     11685 MEMB     85       DOPC     H3X      HAL2     0.900000E-01   1.00800           0
     11686 MEMB     85       DOPC     H3Y      HAL2     0.900000E-01   1.00800           0
     11687 MEMB     85       DOPC     C34      CTL2    -0.180000       12.0110           0
     11688 MEMB     85       DOPC     H4X      HAL2     0.900000E-01   1.00800           0
     11689 MEMB     85       DOPC     H4Y      HAL2     0.900000E-01   1.00800           0
     11690 MEMB     85       DOPC     C35      CTL2    -0.180000       12.0110           0
     11691 MEMB     85       DOPC     H5X      HAL2     0.900000E-01   1.00800           0
     11692 MEMB     85       DOPC     H5Y      HAL2     0.900000E-01   1.00800           0
     11693 MEMB     85       DOPC     C36      CTL2    -0.180000       12.0110           0
     11694 MEMB     85       DOPC     H6X      HAL2     0.900000E-01   1.00800           0
     11695 MEMB     85       DOPC     H6Y      HAL2     0.900000E-01   1.00800           0
     11696 MEMB     85       DOPC     C37      CTL2    -0.180000       12.0110           0
     11697 MEMB     85       DOPC     H7X      HAL2     0.900000E-01   1.00800           0
     11698 MEMB     85       DOPC     H7Y      HAL2     0.900000E-01   1.00800           0
     11699 MEMB     85       DOPC     C38      CTL2    -0.180000       12.0110           0
     11700 MEMB     85       DOPC     H8X      HAL2     0.900000E-01   1.00800           0
     11701 MEMB     85       DOPC     H8Y      HAL2     0.900000E-01   1.00800           0
     11702 MEMB     85       DOPC     C39      CEL1    -0.150000       12.0110           0
     11703 MEMB     85       DOPC     H9X      HEL1     0.150000       1.00800           0
     11704 MEMB     85       DOPC     C310     CEL1    -0.150000       12.0110           0
     11705 MEMB     85       DOPC     H10X     HEL1     0.150000       1.00800           0
     11706 MEMB     85       DOPC     C311     CTL2    -0.180000       12.0110           0
     11707 MEMB     85       DOPC     H11X     HAL2     0.900000E-01   1.00800           0
     11708 MEMB     85       DOPC     H11Y     HAL2     0.900000E-01   1.00800           0
     11709 MEMB     85       DOPC     C312     CTL2    -0.180000       12.0110           0
     11710 MEMB     85       DOPC     H12X     HAL2     0.900000E-01   1.00800           0
     11711 MEMB     85       DOPC     H12Y     HAL2     0.900000E-01   1.00800           0
     11712 MEMB     85       DOPC     C313     CTL2    -0.180000       12.0110           0
     11713 MEMB     85       DOPC     H13X     HAL2     0.900000E-01   1.00800           0
     11714 MEMB     85       DOPC     H13Y     HAL2     0.900000E-01   1.00800           0
     11715 MEMB     85       DOPC     C314     CTL2    -0.180000       12.0110           0
     11716 MEMB     85       DOPC     H14X     HAL2     0.900000E-01   1.00800           0
     11717 MEMB     85       DOPC     H14Y     HAL2     0.900000E-01   1.00800           0
     11718 MEMB     85       DOPC     C315     CTL2    -0.180000       12.0110           0
     11719 MEMB     85       DOPC     H15X     HAL2     0.900000E-01   1.00800           0
     11720 MEMB     85       DOPC     H15Y     HAL2     0.900000E-01   1.00800           0
     11721 MEMB     85       DOPC     C316     CTL2    -0.180000       12.0110           0
     11722 MEMB     85       DOPC     H16X     HAL2     0.900000E-01   1.00800           0
     11723 MEMB     85       DOPC     H16Y     HAL2     0.900000E-01   1.00800           0
     11724 MEMB     85       DOPC     C317     CTL2    -0.180000       12.0110           0
     11725 MEMB     85       DOPC     H17X     HAL2     0.900000E-01   1.00800           0
     11726 MEMB     85       DOPC     H17Y     HAL2     0.900000E-01   1.00800           0
     11727 MEMB     85       DOPC     C318     CTL3    -0.270000       12.0110           0
     11728 MEMB     85       DOPC     H18X     HAL3     0.900000E-01   1.00800           0
     11729 MEMB     85       DOPC     H18Y     HAL3     0.900000E-01   1.00800           0
     11730 MEMB     85       DOPC     H18Z     HAL3     0.900000E-01   1.00800           0
     11731 MEMB     86       DOPC     N        NTL     -0.600000       14.0070           0
     11732 MEMB     86       DOPC     C12      CTL2    -0.100000       12.0110           0
     11733 MEMB     86       DOPC     H12A     HL       0.250000       1.00800           0
     11734 MEMB     86       DOPC     H12B     HL       0.250000       1.00800           0
     11735 MEMB     86       DOPC     C13      CTL5    -0.350000       12.0110           0
     11736 MEMB     86       DOPC     H13A     HL       0.250000       1.00800           0
     11737 MEMB     86       DOPC     H13B     HL       0.250000       1.00800           0
     11738 MEMB     86       DOPC     H13C     HL       0.250000       1.00800           0
     11739 MEMB     86       DOPC     C14      CTL5    -0.350000       12.0110           0
     11740 MEMB     86       DOPC     H14A     HL       0.250000       1.00800           0
     11741 MEMB     86       DOPC     H14B     HL       0.250000       1.00800           0
     11742 MEMB     86       DOPC     H14C     HL       0.250000       1.00800           0
     11743 MEMB     86       DOPC     C15      CTL5    -0.350000       12.0110           0
     11744 MEMB     86       DOPC     H15A     HL       0.250000       1.00800           0
     11745 MEMB     86       DOPC     H15B     HL       0.250000       1.00800           0
     11746 MEMB     86       DOPC     H15C     HL       0.250000       1.00800           0
     11747 MEMB     86       DOPC     C11      CTL2    -0.800000E-01   12.0110           0
     11748 MEMB     86       DOPC     H11A     HAL2     0.900000E-01   1.00800           0
     11749 MEMB     86       DOPC     H11B     HAL2     0.900000E-01   1.00800           0
     11750 MEMB     86       DOPC     P        PL        1.50000       30.9740           0
     11751 MEMB     86       DOPC     O13      O2L     -0.780000       15.9994           0
     11752 MEMB     86       DOPC     O14      O2L     -0.780000       15.9994           0
     11753 MEMB     86       DOPC     O12      OSLP    -0.570000       15.9994           0
     11754 MEMB     86       DOPC     O11      OSLP    -0.570000       15.9994           0
     11755 MEMB     86       DOPC     C1       CTL2    -0.800000E-01   12.0110           0
     11756 MEMB     86       DOPC     HA       HAL2     0.900000E-01   1.00800           0
     11757 MEMB     86       DOPC     HB       HAL2     0.900000E-01   1.00800           0
     11758 MEMB     86       DOPC     C2       CTL1     0.170000       12.0110           0
     11759 MEMB     86       DOPC     HS       HAL1     0.900000E-01   1.00800           0
     11760 MEMB     86       DOPC     O21      OSL     -0.490000       15.9994           0
     11761 MEMB     86       DOPC     C21      CL       0.900000       12.0110           0
     11762 MEMB     86       DOPC     O22      OBL     -0.630000       15.9994           0
     11763 MEMB     86       DOPC     C22      CTL2    -0.220000       12.0110           0
     11764 MEMB     86       DOPC     H2R      HAL2     0.900000E-01   1.00800           0
     11765 MEMB     86       DOPC     H2S      HAL2     0.900000E-01   1.00800           0
     11766 MEMB     86       DOPC     C3       CTL2     0.800000E-01   12.0110           0
     11767 MEMB     86       DOPC     HX       HAL2     0.900000E-01   1.00800           0
     11768 MEMB     86       DOPC     HY       HAL2     0.900000E-01   1.00800           0
     11769 MEMB     86       DOPC     O31      OSL     -0.490000       15.9994           0
     11770 MEMB     86       DOPC     C31      CL       0.900000       12.0110           0
     11771 MEMB     86       DOPC     O32      OBL     -0.630000       15.9994           0
     11772 MEMB     86       DOPC     C32      CTL2    -0.220000       12.0110           0
     11773 MEMB     86       DOPC     H2X      HAL2     0.900000E-01   1.00800           0
     11774 MEMB     86       DOPC     H2Y      HAL2     0.900000E-01   1.00800           0
     11775 MEMB     86       DOPC     C23      CTL2    -0.180000       12.0110           0
     11776 MEMB     86       DOPC     H3R      HAL2     0.900000E-01   1.00800           0
     11777 MEMB     86       DOPC     H3S      HAL2     0.900000E-01   1.00800           0
     11778 MEMB     86       DOPC     C24      CTL2    -0.180000       12.0110           0
     11779 MEMB     86       DOPC     H4R      HAL2     0.900000E-01   1.00800           0
     11780 MEMB     86       DOPC     H4S      HAL2     0.900000E-01   1.00800           0
     11781 MEMB     86       DOPC     C25      CTL2    -0.180000       12.0110           0
     11782 MEMB     86       DOPC     H5R      HAL2     0.900000E-01   1.00800           0
     11783 MEMB     86       DOPC     H5S      HAL2     0.900000E-01   1.00800           0
     11784 MEMB     86       DOPC     C26      CTL2    -0.180000       12.0110           0
     11785 MEMB     86       DOPC     H6R      HAL2     0.900000E-01   1.00800           0
     11786 MEMB     86       DOPC     H6S      HAL2     0.900000E-01   1.00800           0
     11787 MEMB     86       DOPC     C27      CTL2    -0.180000       12.0110           0
     11788 MEMB     86       DOPC     H7R      HAL2     0.900000E-01   1.00800           0
     11789 MEMB     86       DOPC     H7S      HAL2     0.900000E-01   1.00800           0
     11790 MEMB     86       DOPC     C28      CTL2    -0.180000       12.0110           0
     11791 MEMB     86       DOPC     H8R      HAL2     0.900000E-01   1.00800           0
     11792 MEMB     86       DOPC     H8S      HAL2     0.900000E-01   1.00800           0
     11793 MEMB     86       DOPC     C29      CEL1    -0.150000       12.0110           0
     11794 MEMB     86       DOPC     H9R      HEL1     0.150000       1.00800           0
     11795 MEMB     86       DOPC     C210     CEL1    -0.150000       12.0110           0
     11796 MEMB     86       DOPC     H10R     HEL1     0.150000       1.00800           0
     11797 MEMB     86       DOPC     C211     CTL2    -0.180000       12.0110           0
     11798 MEMB     86       DOPC     H11R     HAL2     0.900000E-01   1.00800           0
     11799 MEMB     86       DOPC     H11S     HAL2     0.900000E-01   1.00800           0
     11800 MEMB     86       DOPC     C212     CTL2    -0.180000       12.0110           0
     11801 MEMB     86       DOPC     H12R     HAL2     0.900000E-01   1.00800           0
     11802 MEMB     86       DOPC     H12S     HAL2     0.900000E-01   1.00800           0
     11803 MEMB     86       DOPC     C213     CTL2    -0.180000       12.0110           0
     11804 MEMB     86       DOPC     H13R     HAL2     0.900000E-01   1.00800           0
     11805 MEMB     86       DOPC     H13S     HAL2     0.900000E-01   1.00800           0
     11806 MEMB     86       DOPC     C214     CTL2    -0.180000       12.0110           0
     11807 MEMB     86       DOPC     H14R     HAL2     0.900000E-01   1.00800           0
     11808 MEMB     86       DOPC     H14S     HAL2     0.900000E-01   1.00800           0
     11809 MEMB     86       DOPC     C215     CTL2    -0.180000       12.0110           0
     11810 MEMB     86       DOPC     H15R     HAL2     0.900000E-01   1.00800           0
     11811 MEMB     86       DOPC     H15S     HAL2     0.900000E-01   1.00800           0
     11812 MEMB     86       DOPC     C216     CTL2    -0.180000       12.0110           0
     11813 MEMB     86       DOPC     H16R     HAL2     0.900000E-01   1.00800           0
     11814 MEMB     86       DOPC     H16S     HAL2     0.900000E-01   1.00800           0
     11815 MEMB     86       DOPC     C217     CTL2    -0.180000       12.0110           0
     11816 MEMB     86       DOPC     H17R     HAL2     0.900000E-01   1.00800           0
     11817 MEMB     86       DOPC     H17S     HAL2     0.900000E-01   1.00800           0
     11818 MEMB     86       DOPC     C218     CTL3    -0.270000       12.0110           0
     11819 MEMB     86       DOPC     H18R     HAL3     0.900000E-01   1.00800           0
     11820 MEMB     86       DOPC     H18S     HAL3     0.900000E-01   1.00800           0
     11821 MEMB     86       DOPC     H18T     HAL3     0.900000E-01   1.00800           0
     11822 MEMB     86       DOPC     C33      CTL2    -0.180000       12.0110           0
     11823 MEMB     86       DOPC     H3X      HAL2     0.900000E-01   1.00800           0
     11824 MEMB     86       DOPC     H3Y      HAL2     0.900000E-01   1.00800           0
     11825 MEMB     86       DOPC     C34      CTL2    -0.180000       12.0110           0
     11826 MEMB     86       DOPC     H4X      HAL2     0.900000E-01   1.00800           0
     11827 MEMB     86       DOPC     H4Y      HAL2     0.900000E-01   1.00800           0
     11828 MEMB     86       DOPC     C35      CTL2    -0.180000       12.0110           0
     11829 MEMB     86       DOPC     H5X      HAL2     0.900000E-01   1.00800           0
     11830 MEMB     86       DOPC     H5Y      HAL2     0.900000E-01   1.00800           0
     11831 MEMB     86       DOPC     C36      CTL2    -0.180000       12.0110           0
     11832 MEMB     86       DOPC     H6X      HAL2     0.900000E-01   1.00800           0
     11833 MEMB     86       DOPC     H6Y      HAL2     0.900000E-01   1.00800           0
     11834 MEMB     86       DOPC     C37      CTL2    -0.180000       12.0110           0
     11835 MEMB     86       DOPC     H7X      HAL2     0.900000E-01   1.00800           0
     11836 MEMB     86       DOPC     H7Y      HAL2     0.900000E-01   1.00800           0
     11837 MEMB     86       DOPC     C38      CTL2    -0.180000       12.0110           0
     11838 MEMB     86       DOPC     H8X      HAL2     0.900000E-01   1.00800           0
     11839 MEMB     86       DOPC     H8Y      HAL2     0.900000E-01   1.00800           0
     11840 MEMB     86       DOPC     C39      CEL1    -0.150000       12.0110           0
     11841 MEMB     86       DOPC     H9X      HEL1     0.150000       1.00800           0
     11842 MEMB     86       DOPC     C310     CEL1    -0.150000       12.0110           0
     11843 MEMB     86       DOPC     H10X     HEL1     0.150000       1.00800           0
     11844 MEMB     86       DOPC     C311     CTL2    -0.180000       12.0110           0
     11845 MEMB     86       DOPC     H11X     HAL2     0.900000E-01   1.00800           0
     11846 MEMB     86       DOPC     H11Y     HAL2     0.900000E-01   1.00800           0
     11847 MEMB     86       DOPC     C312     CTL2    -0.180000       12.0110           0
     11848 MEMB     86       DOPC     H12X     HAL2     0.900000E-01   1.00800           0
     11849 MEMB     86       DOPC     H12Y     HAL2     0.900000E-01   1.00800           0
     11850 MEMB     86       DOPC     C313     CTL2    -0.180000       12.0110           0
     11851 MEMB     86       DOPC     H13X     HAL2     0.900000E-01   1.00800           0
     11852 MEMB     86       DOPC     H13Y     HAL2     0.900000E-01   1.00800           0
     11853 MEMB     86       DOPC     C314     CTL2    -0.180000       12.0110           0
     11854 MEMB     86       DOPC     H14X     HAL2     0.900000E-01   1.00800           0
     11855 MEMB     86       DOPC     H14Y     HAL2     0.900000E-01   1.00800           0
     11856 MEMB     86       DOPC     C315     CTL2    -0.180000       12.0110           0
     11857 MEMB     86       DOPC     H15X     HAL2     0.900000E-01   1.00800           0
     11858 MEMB     86       DOPC     H15Y     HAL2     0.900000E-01   1.00800           0
     11859 MEMB     86       DOPC     C316     CTL2    -0.180000       12.0110           0
     11860 MEMB     86       DOPC     H16X     HAL2     0.900000E-01   1.00800           0
     11861 MEMB     86       DOPC     H16Y     HAL2     0.900000E-01   1.00800           0
     11862 MEMB     86       DOPC     C317     CTL2    -0.180000       12.0110           0
     11863 MEMB     86       DOPC     H17X     HAL2     0.900000E-01   1.00800           0
     11864 MEMB     86       DOPC     H17Y     HAL2     0.900000E-01   1.00800           0
     11865 MEMB     86       DOPC     C318     CTL3    -0.270000       12.0110           0
     11866 MEMB     86       DOPC     H18X     HAL3     0.900000E-01   1.00800           0
     11867 MEMB     86       DOPC     H18Y     HAL3     0.900000E-01   1.00800           0
     11868 MEMB     86       DOPC     H18Z     HAL3     0.900000E-01   1.00800           0
     11869 MEMB     87       DOPC     N        NTL     -0.600000       14.0070           0
     11870 MEMB     87       DOPC     C12      CTL2    -0.100000       12.0110           0
     11871 MEMB     87       DOPC     H12A     HL       0.250000       1.00800           0
     11872 MEMB     87       DOPC     H12B     HL       0.250000       1.00800           0
     11873 MEMB     87       DOPC     C13      CTL5    -0.350000       12.0110           0
     11874 MEMB     87       DOPC     H13A     HL       0.250000       1.00800           0
     11875 MEMB     87       DOPC     H13B     HL       0.250000       1.00800           0
     11876 MEMB     87       DOPC     H13C     HL       0.250000       1.00800           0
     11877 MEMB     87       DOPC     C14      CTL5    -0.350000       12.0110           0
     11878 MEMB     87       DOPC     H14A     HL       0.250000       1.00800           0
     11879 MEMB     87       DOPC     H14B     HL       0.250000       1.00800           0
     11880 MEMB     87       DOPC     H14C     HL       0.250000       1.00800           0
     11881 MEMB     87       DOPC     C15      CTL5    -0.350000       12.0110           0
     11882 MEMB     87       DOPC     H15A     HL       0.250000       1.00800           0
     11883 MEMB     87       DOPC     H15B     HL       0.250000       1.00800           0
     11884 MEMB     87       DOPC     H15C     HL       0.250000       1.00800           0
     11885 MEMB     87       DOPC     C11      CTL2    -0.800000E-01   12.0110           0
     11886 MEMB     87       DOPC     H11A     HAL2     0.900000E-01   1.00800           0
     11887 MEMB     87       DOPC     H11B     HAL2     0.900000E-01   1.00800           0
     11888 MEMB     87       DOPC     P        PL        1.50000       30.9740           0
     11889 MEMB     87       DOPC     O13      O2L     -0.780000       15.9994           0
     11890 MEMB     87       DOPC     O14      O2L     -0.780000       15.9994           0
     11891 MEMB     87       DOPC     O12      OSLP    -0.570000       15.9994           0
     11892 MEMB     87       DOPC     O11      OSLP    -0.570000       15.9994           0
     11893 MEMB     87       DOPC     C1       CTL2    -0.800000E-01   12.0110           0
     11894 MEMB     87       DOPC     HA       HAL2     0.900000E-01   1.00800           0
     11895 MEMB     87       DOPC     HB       HAL2     0.900000E-01   1.00800           0
     11896 MEMB     87       DOPC     C2       CTL1     0.170000       12.0110           0
     11897 MEMB     87       DOPC     HS       HAL1     0.900000E-01   1.00800           0
     11898 MEMB     87       DOPC     O21      OSL     -0.490000       15.9994           0
     11899 MEMB     87       DOPC     C21      CL       0.900000       12.0110           0
     11900 MEMB     87       DOPC     O22      OBL     -0.630000       15.9994           0
     11901 MEMB     87       DOPC     C22      CTL2    -0.220000       12.0110           0
     11902 MEMB     87       DOPC     H2R      HAL2     0.900000E-01   1.00800           0
     11903 MEMB     87       DOPC     H2S      HAL2     0.900000E-01   1.00800           0
     11904 MEMB     87       DOPC     C3       CTL2     0.800000E-01   12.0110           0
     11905 MEMB     87       DOPC     HX       HAL2     0.900000E-01   1.00800           0
     11906 MEMB     87       DOPC     HY       HAL2     0.900000E-01   1.00800           0
     11907 MEMB     87       DOPC     O31      OSL     -0.490000       15.9994           0
     11908 MEMB     87       DOPC     C31      CL       0.900000       12.0110           0
     11909 MEMB     87       DOPC     O32      OBL     -0.630000       15.9994           0
     11910 MEMB     87       DOPC     C32      CTL2    -0.220000       12.0110           0
     11911 MEMB     87       DOPC     H2X      HAL2     0.900000E-01   1.00800           0
     11912 MEMB     87       DOPC     H2Y      HAL2     0.900000E-01   1.00800           0
     11913 MEMB     87       DOPC     C23      CTL2    -0.180000       12.0110           0
     11914 MEMB     87       DOPC     H3R      HAL2     0.900000E-01   1.00800           0
     11915 MEMB     87       DOPC     H3S      HAL2     0.900000E-01   1.00800           0
     11916 MEMB     87       DOPC     C24      CTL2    -0.180000       12.0110           0
     11917 MEMB     87       DOPC     H4R      HAL2     0.900000E-01   1.00800           0
     11918 MEMB     87       DOPC     H4S      HAL2     0.900000E-01   1.00800           0
     11919 MEMB     87       DOPC     C25      CTL2    -0.180000       12.0110           0
     11920 MEMB     87       DOPC     H5R      HAL2     0.900000E-01   1.00800           0
     11921 MEMB     87       DOPC     H5S      HAL2     0.900000E-01   1.00800           0
     11922 MEMB     87       DOPC     C26      CTL2    -0.180000       12.0110           0
     11923 MEMB     87       DOPC     H6R      HAL2     0.900000E-01   1.00800           0
     11924 MEMB     87       DOPC     H6S      HAL2     0.900000E-01   1.00800           0
     11925 MEMB     87       DOPC     C27      CTL2    -0.180000       12.0110           0
     11926 MEMB     87       DOPC     H7R      HAL2     0.900000E-01   1.00800           0
     11927 MEMB     87       DOPC     H7S      HAL2     0.900000E-01   1.00800           0
     11928 MEMB     87       DOPC     C28      CTL2    -0.180000       12.0110           0
     11929 MEMB     87       DOPC     H8R      HAL2     0.900000E-01   1.00800           0
     11930 MEMB     87       DOPC     H8S      HAL2     0.900000E-01   1.00800           0
     11931 MEMB     87       DOPC     C29      CEL1    -0.150000       12.0110           0
     11932 MEMB     87       DOPC     H9R      HEL1     0.150000       1.00800           0
     11933 MEMB     87       DOPC     C210     CEL1    -0.150000       12.0110           0
     11934 MEMB     87       DOPC     H10R     HEL1     0.150000       1.00800           0
     11935 MEMB     87       DOPC     C211     CTL2    -0.180000       12.0110           0
     11936 MEMB     87       DOPC     H11R     HAL2     0.900000E-01   1.00800           0
     11937 MEMB     87       DOPC     H11S     HAL2     0.900000E-01   1.00800           0
     11938 MEMB     87       DOPC     C212     CTL2    -0.180000       12.0110           0
     11939 MEMB     87       DOPC     H12R     HAL2     0.900000E-01   1.00800           0
     11940 MEMB     87       DOPC     H12S     HAL2     0.900000E-01   1.00800           0
     11941 MEMB     87       DOPC     C213     CTL2    -0.180000       12.0110           0
     11942 MEMB     87       DOPC     H13R     HAL2     0.900000E-01   1.00800           0
     11943 MEMB     87       DOPC     H13S     HAL2     0.900000E-01   1.00800           0
     11944 MEMB     87       DOPC     C214     CTL2    -0.180000       12.0110           0
     11945 MEMB     87       DOPC     H14R     HAL2     0.900000E-01   1.00800           0
     11946 MEMB     87       DOPC     H14S     HAL2     0.900000E-01   1.00800           0
     11947 MEMB     87       DOPC     C215     CTL2    -0.180000       12.0110           0
     11948 MEMB     87       DOPC     H15R     HAL2     0.900000E-01   1.00800           0
     11949 MEMB     87       DOPC     H15S     HAL2     0.900000E-01   1.00800           0
     11950 MEMB     87       DOPC     C216     CTL2    -0.180000       12.0110           0
     11951 MEMB     87       DOPC     H16R     HAL2     0.900000E-01   1.00800           0
     11952 MEMB     87       DOPC     H16S     HAL2     0.900000E-01   1.00800           0
     11953 MEMB     87       DOPC     C217     CTL2    -0.180000       12.0110           0
     11954 MEMB     87       DOPC     H17R     HAL2     0.900000E-01   1.00800           0
     11955 MEMB     87       DOPC     H17S     HAL2     0.900000E-01   1.00800           0
     11956 MEMB     87       DOPC     C218     CTL3    -0.270000       12.0110           0
     11957 MEMB     87       DOPC     H18R     HAL3     0.900000E-01   1.00800           0
     11958 MEMB     87       DOPC     H18S     HAL3     0.900000E-01   1.00800           0
     11959 MEMB     87       DOPC     H18T     HAL3     0.900000E-01   1.00800           0
     11960 MEMB     87       DOPC     C33      CTL2    -0.180000       12.0110           0
     11961 MEMB     87       DOPC     H3X      HAL2     0.900000E-01   1.00800           0
     11962 MEMB     87       DOPC     H3Y      HAL2     0.900000E-01   1.00800           0
     11963 MEMB     87       DOPC     C34      CTL2    -0.180000       12.0110           0
     11964 MEMB     87       DOPC     H4X      HAL2     0.900000E-01   1.00800           0
     11965 MEMB     87       DOPC     H4Y      HAL2     0.900000E-01   1.00800           0
     11966 MEMB     87       DOPC     C35      CTL2    -0.180000       12.0110           0
     11967 MEMB     87       DOPC     H5X      HAL2     0.900000E-01   1.00800           0
     11968 MEMB     87       DOPC     H5Y      HAL2     0.900000E-01   1.00800           0
     11969 MEMB     87       DOPC     C36      CTL2    -0.180000       12.0110           0
     11970 MEMB     87       DOPC     H6X      HAL2     0.900000E-01   1.00800           0
     11971 MEMB     87       DOPC     H6Y      HAL2     0.900000E-01   1.00800           0
     11972 MEMB     87       DOPC     C37      CTL2    -0.180000       12.0110           0
     11973 MEMB     87       DOPC     H7X      HAL2     0.900000E-01   1.00800           0
     11974 MEMB     87       DOPC     H7Y      HAL2     0.900000E-01   1.00800           0
     11975 MEMB     87       DOPC     C38      CTL2    -0.180000       12.0110           0
     11976 MEMB     87       DOPC     H8X      HAL2     0.900000E-01   1.00800           0
     11977 MEMB     87       DOPC     H8Y      HAL2     0.900000E-01   1.00800           0
     11978 MEMB     87       DOPC     C39      CEL1    -0.150000       12.0110           0
     11979 MEMB     87       DOPC     H9X      HEL1     0.150000       1.00800           0
     11980 MEMB     87       DOPC     C310     CEL1    -0.150000       12.0110           0
     11981 MEMB     87       DOPC     H10X     HEL1     0.150000       1.00800           0
     11982 MEMB     87       DOPC     C311     CTL2    -0.180000       12.0110           0
     11983 MEMB     87       DOPC     H11X     HAL2     0.900000E-01   1.00800           0
     11984 MEMB     87       DOPC     H11Y     HAL2     0.900000E-01   1.00800           0
     11985 MEMB     87       DOPC     C312     CTL2    -0.180000       12.0110           0
     11986 MEMB     87       DOPC     H12X     HAL2     0.900000E-01   1.00800           0
     11987 MEMB     87       DOPC     H12Y     HAL2     0.900000E-01   1.00800           0
     11988 MEMB     87       DOPC     C313     CTL2    -0.180000       12.0110           0
     11989 MEMB     87       DOPC     H13X     HAL2     0.900000E-01   1.00800           0
     11990 MEMB     87       DOPC     H13Y     HAL2     0.900000E-01   1.00800           0
     11991 MEMB     87       DOPC     C314     CTL2    -0.180000       12.0110           0
     11992 MEMB     87       DOPC     H14X     HAL2     0.900000E-01   1.00800           0
     11993 MEMB     87       DOPC     H14Y     HAL2     0.900000E-01   1.00800           0
     11994 MEMB     87       DOPC     C315     CTL2    -0.180000       12.0110           0
     11995 MEMB     87       DOPC     H15X     HAL2     0.900000E-01   1.00800           0
     11996 MEMB     87       DOPC     H15Y     HAL2     0.900000E-01   1.00800           0
     11997 MEMB     87       DOPC     C316     CTL2    -0.180000       12.0110           0
     11998 MEMB     87       DOPC     H16X     HAL2     0.900000E-01   1.00800           0
     11999 MEMB     87       DOPC     H16Y     HAL2     0.900000E-01   1.00800           0
     12000 MEMB     87       DOPC     C317     CTL2    -0.180000       12.0110           0
     12001 MEMB     87       DOPC     H17X     HAL2     0.900000E-01   1.00800           0
     12002 MEMB     87       DOPC     H17Y     HAL2     0.900000E-01   1.00800           0
     12003 MEMB     87       DOPC     C318     CTL3    -0.270000       12.0110           0
     12004 MEMB     87       DOPC     H18X     HAL3     0.900000E-01   1.00800           0
     12005 MEMB     87       DOPC     H18Y     HAL3     0.900000E-01   1.00800           0
     12006 MEMB     87       DOPC     H18Z     HAL3     0.900000E-01   1.00800           0
     12007 MEMB     88       DOPC     N        NTL     -0.600000       14.0070           0
     12008 MEMB     88       DOPC     C12      CTL2    -0.100000       12.0110           0
     12009 MEMB     88       DOPC     H12A     HL       0.250000       1.00800           0
     12010 MEMB     88       DOPC     H12B     HL       0.250000       1.00800           0
     12011 MEMB     88       DOPC     C13      CTL5    -0.350000       12.0110           0
     12012 MEMB     88       DOPC     H13A     HL       0.250000       1.00800           0
     12013 MEMB     88       DOPC     H13B     HL       0.250000       1.00800           0
     12014 MEMB     88       DOPC     H13C     HL       0.250000       1.00800           0
     12015 MEMB     88       DOPC     C14      CTL5    -0.350000       12.0110           0
     12016 MEMB     88       DOPC     H14A     HL       0.250000       1.00800           0
     12017 MEMB     88       DOPC     H14B     HL       0.250000       1.00800           0
     12018 MEMB     88       DOPC     H14C     HL       0.250000       1.00800           0
     12019 MEMB     88       DOPC     C15      CTL5    -0.350000       12.0110           0
     12020 MEMB     88       DOPC     H15A     HL       0.250000       1.00800           0
     12021 MEMB     88       DOPC     H15B     HL       0.250000       1.00800           0
     12022 MEMB     88       DOPC     H15C     HL       0.250000       1.00800           0
     12023 MEMB     88       DOPC     C11      CTL2    -0.800000E-01   12.0110           0
     12024 MEMB     88       DOPC     H11A     HAL2     0.900000E-01   1.00800           0
     12025 MEMB     88       DOPC     H11B     HAL2     0.900000E-01   1.00800           0
     12026 MEMB     88       DOPC     P        PL        1.50000       30.9740           0
     12027 MEMB     88       DOPC     O13      O2L     -0.780000       15.9994           0
     12028 MEMB     88       DOPC     O14      O2L     -0.780000       15.9994           0
     12029 MEMB     88       DOPC     O12      OSLP    -0.570000       15.9994           0
     12030 MEMB     88       DOPC     O11      OSLP    -0.570000       15.9994           0
     12031 MEMB     88       DOPC     C1       CTL2    -0.800000E-01   12.0110           0
     12032 MEMB     88       DOPC     HA       HAL2     0.900000E-01   1.00800           0
     12033 MEMB     88       DOPC     HB       HAL2     0.900000E-01   1.00800           0
     12034 MEMB     88       DOPC     C2       CTL1     0.170000       12.0110           0
     12035 MEMB     88       DOPC     HS       HAL1     0.900000E-01   1.00800           0
     12036 MEMB     88       DOPC     O21      OSL     -0.490000       15.9994           0
     12037 MEMB     88       DOPC     C21      CL       0.900000       12.0110           0
     12038 MEMB     88       DOPC     O22      OBL     -0.630000       15.9994           0
     12039 MEMB     88       DOPC     C22      CTL2    -0.220000       12.0110           0
     12040 MEMB     88       DOPC     H2R      HAL2     0.900000E-01   1.00800           0
     12041 MEMB     88       DOPC     H2S      HAL2     0.900000E-01   1.00800           0
     12042 MEMB     88       DOPC     C3       CTL2     0.800000E-01   12.0110           0
     12043 MEMB     88       DOPC     HX       HAL2     0.900000E-01   1.00800           0
     12044 MEMB     88       DOPC     HY       HAL2     0.900000E-01   1.00800           0
     12045 MEMB     88       DOPC     O31      OSL     -0.490000       15.9994           0
     12046 MEMB     88       DOPC     C31      CL       0.900000       12.0110           0
     12047 MEMB     88       DOPC     O32      OBL     -0.630000       15.9994           0
     12048 MEMB     88       DOPC     C32      CTL2    -0.220000       12.0110           0
     12049 MEMB     88       DOPC     H2X      HAL2     0.900000E-01   1.00800           0
     12050 MEMB     88       DOPC     H2Y      HAL2     0.900000E-01   1.00800           0
     12051 MEMB     88       DOPC     C23      CTL2    -0.180000       12.0110           0
     12052 MEMB     88       DOPC     H3R      HAL2     0.900000E-01   1.00800           0
     12053 MEMB     88       DOPC     H3S      HAL2     0.900000E-01   1.00800           0
     12054 MEMB     88       DOPC     C24      CTL2    -0.180000       12.0110           0
     12055 MEMB     88       DOPC     H4R      HAL2     0.900000E-01   1.00800           0
     12056 MEMB     88       DOPC     H4S      HAL2     0.900000E-01   1.00800           0
     12057 MEMB     88       DOPC     C25      CTL2    -0.180000       12.0110           0
     12058 MEMB     88       DOPC     H5R      HAL2     0.900000E-01   1.00800           0
     12059 MEMB     88       DOPC     H5S      HAL2     0.900000E-01   1.00800           0
     12060 MEMB     88       DOPC     C26      CTL2    -0.180000       12.0110           0
     12061 MEMB     88       DOPC     H6R      HAL2     0.900000E-01   1.00800           0
     12062 MEMB     88       DOPC     H6S      HAL2     0.900000E-01   1.00800           0
     12063 MEMB     88       DOPC     C27      CTL2    -0.180000       12.0110           0
     12064 MEMB     88       DOPC     H7R      HAL2     0.900000E-01   1.00800           0
     12065 MEMB     88       DOPC     H7S      HAL2     0.900000E-01   1.00800           0
     12066 MEMB     88       DOPC     C28      CTL2    -0.180000       12.0110           0
     12067 MEMB     88       DOPC     H8R      HAL2     0.900000E-01   1.00800           0
     12068 MEMB     88       DOPC     H8S      HAL2     0.900000E-01   1.00800           0
     12069 MEMB     88       DOPC     C29      CEL1    -0.150000       12.0110           0
     12070 MEMB     88       DOPC     H9R      HEL1     0.150000       1.00800           0
     12071 MEMB     88       DOPC     C210     CEL1    -0.150000       12.0110           0
     12072 MEMB     88       DOPC     H10R     HEL1     0.150000       1.00800           0
     12073 MEMB     88       DOPC     C211     CTL2    -0.180000       12.0110           0
     12074 MEMB     88       DOPC     H11R     HAL2     0.900000E-01   1.00800           0
     12075 MEMB     88       DOPC     H11S     HAL2     0.900000E-01   1.00800           0
     12076 MEMB     88       DOPC     C212     CTL2    -0.180000       12.0110           0
     12077 MEMB     88       DOPC     H12R     HAL2     0.900000E-01   1.00800           0
     12078 MEMB     88       DOPC     H12S     HAL2     0.900000E-01   1.00800           0
     12079 MEMB     88       DOPC     C213     CTL2    -0.180000       12.0110           0
     12080 MEMB     88       DOPC     H13R     HAL2     0.900000E-01   1.00800           0
     12081 MEMB     88       DOPC     H13S     HAL2     0.900000E-01   1.00800           0
     12082 MEMB     88       DOPC     C214     CTL2    -0.180000       12.0110           0
     12083 MEMB     88       DOPC     H14R     HAL2     0.900000E-01   1.00800           0
     12084 MEMB     88       DOPC     H14S     HAL2     0.900000E-01   1.00800           0
     12085 MEMB     88       DOPC     C215     CTL2    -0.180000       12.0110           0
     12086 MEMB     88       DOPC     H15R     HAL2     0.900000E-01   1.00800           0
     12087 MEMB     88       DOPC     H15S     HAL2     0.900000E-01   1.00800           0
     12088 MEMB     88       DOPC     C216     CTL2    -0.180000       12.0110           0
     12089 MEMB     88       DOPC     H16R     HAL2     0.900000E-01   1.00800           0
     12090 MEMB     88       DOPC     H16S     HAL2     0.900000E-01   1.00800           0
     12091 MEMB     88       DOPC     C217     CTL2    -0.180000       12.0110           0
     12092 MEMB     88       DOPC     H17R     HAL2     0.900000E-01   1.00800           0
     12093 MEMB     88       DOPC     H17S     HAL2     0.900000E-01   1.00800           0
     12094 MEMB     88       DOPC     C218     CTL3    -0.270000       12.0110           0
     12095 MEMB     88       DOPC     H18R     HAL3     0.900000E-01   1.00800           0
     12096 MEMB     88       DOPC     H18S     HAL3     0.900000E-01   1.00800           0
     12097 MEMB     88       DOPC     H18T     HAL3     0.900000E-01   1.00800           0
     12098 MEMB     88       DOPC     C33      CTL2    -0.180000       12.0110           0
     12099 MEMB     88       DOPC     H3X      HAL2     0.900000E-01   1.00800           0
     12100 MEMB     88       DOPC     H3Y      HAL2     0.900000E-01   1.00800           0
     12101 MEMB     88       DOPC     C34      CTL2    -0.180000       12.0110           0
     12102 MEMB     88       DOPC     H4X      HAL2     0.900000E-01   1.00800           0
     12103 MEMB     88       DOPC     H4Y      HAL2     0.900000E-01   1.00800           0
     12104 MEMB     88       DOPC     C35      CTL2    -0.180000       12.0110           0
     12105 MEMB     88       DOPC     H5X      HAL2     0.900000E-01   1.00800           0
     12106 MEMB     88       DOPC     H5Y      HAL2     0.900000E-01   1.00800           0
     12107 MEMB     88       DOPC     C36      CTL2    -0.180000       12.0110           0
     12108 MEMB     88       DOPC     H6X      HAL2     0.900000E-01   1.00800           0
     12109 MEMB     88       DOPC     H6Y      HAL2     0.900000E-01   1.00800           0
     12110 MEMB     88       DOPC     C37      CTL2    -0.180000       12.0110           0
     12111 MEMB     88       DOPC     H7X      HAL2     0.900000E-01   1.00800           0
     12112 MEMB     88       DOPC     H7Y      HAL2     0.900000E-01   1.00800           0
     12113 MEMB     88       DOPC     C38      CTL2    -0.180000       12.0110           0
     12114 MEMB     88       DOPC     H8X      HAL2     0.900000E-01   1.00800           0
     12115 MEMB     88       DOPC     H8Y      HAL2     0.900000E-01   1.00800           0
     12116 MEMB     88       DOPC     C39      CEL1    -0.150000       12.0110           0
     12117 MEMB     88       DOPC     H9X      HEL1     0.150000       1.00800           0
     12118 MEMB     88       DOPC     C310     CEL1    -0.150000       12.0110           0
     12119 MEMB     88       DOPC     H10X     HEL1     0.150000       1.00800           0
     12120 MEMB     88       DOPC     C311     CTL2    -0.180000       12.0110           0
     12121 MEMB     88       DOPC     H11X     HAL2     0.900000E-01   1.00800           0
     12122 MEMB     88       DOPC     H11Y     HAL2     0.900000E-01   1.00800           0
     12123 MEMB     88       DOPC     C312     CTL2    -0.180000       12.0110           0
     12124 MEMB     88       DOPC     H12X     HAL2     0.900000E-01   1.00800           0
     12125 MEMB     88       DOPC     H12Y     HAL2     0.900000E-01   1.00800           0
     12126 MEMB     88       DOPC     C313     CTL2    -0.180000       12.0110           0
     12127 MEMB     88       DOPC     H13X     HAL2     0.900000E-01   1.00800           0
     12128 MEMB     88       DOPC     H13Y     HAL2     0.900000E-01   1.00800           0
     12129 MEMB     88       DOPC     C314     CTL2    -0.180000       12.0110           0
     12130 MEMB     88       DOPC     H14X     HAL2     0.900000E-01   1.00800           0
     12131 MEMB     88       DOPC     H14Y     HAL2     0.900000E-01   1.00800           0
     12132 MEMB     88       DOPC     C315     CTL2    -0.180000       12.0110           0
     12133 MEMB     88       DOPC     H15X     HAL2     0.900000E-01   1.00800           0
     12134 MEMB     88       DOPC     H15Y     HAL2     0.900000E-01   1.00800           0
     12135 MEMB     88       DOPC     C316     CTL2    -0.180000       12.0110           0
     12136 MEMB     88       DOPC     H16X     HAL2     0.900000E-01   1.00800           0
     12137 MEMB     88       DOPC     H16Y     HAL2     0.900000E-01   1.00800           0
     12138 MEMB     88       DOPC     C317     CTL2    -0.180000       12.0110           0
     12139 MEMB     88       DOPC     H17X     HAL2     0.900000E-01   1.00800           0
     12140 MEMB     88       DOPC     H17Y     HAL2     0.900000E-01   1.00800           0
     12141 MEMB     88       DOPC     C318     CTL3    -0.270000       12.0110           0
     12142 MEMB     88       DOPC     H18X     HAL3     0.900000E-01   1.00800           0
     12143 MEMB     88       DOPC     H18Y     HAL3     0.900000E-01   1.00800           0
     12144 MEMB     88       DOPC     H18Z     HAL3     0.900000E-01   1.00800           0
     12145 MEMB     89       DOPC     N        NTL     -0.600000       14.0070           0
     12146 MEMB     89       DOPC     C12      CTL2    -0.100000       12.0110           0
     12147 MEMB     89       DOPC     H12A     HL       0.250000       1.00800           0
     12148 MEMB     89       DOPC     H12B     HL       0.250000       1.00800           0
     12149 MEMB     89       DOPC     C13      CTL5    -0.350000       12.0110           0
     12150 MEMB     89       DOPC     H13A     HL       0.250000       1.00800           0
     12151 MEMB     89       DOPC     H13B     HL       0.250000       1.00800           0
     12152 MEMB     89       DOPC     H13C     HL       0.250000       1.00800           0
     12153 MEMB     89       DOPC     C14      CTL5    -0.350000       12.0110           0
     12154 MEMB     89       DOPC     H14A     HL       0.250000       1.00800           0
     12155 MEMB     89       DOPC     H14B     HL       0.250000       1.00800           0
     12156 MEMB     89       DOPC     H14C     HL       0.250000       1.00800           0
     12157 MEMB     89       DOPC     C15      CTL5    -0.350000       12.0110           0
     12158 MEMB     89       DOPC     H15A     HL       0.250000       1.00800           0
     12159 MEMB     89       DOPC     H15B     HL       0.250000       1.00800           0
     12160 MEMB     89       DOPC     H15C     HL       0.250000       1.00800           0
     12161 MEMB     89       DOPC     C11      CTL2    -0.800000E-01   12.0110           0
     12162 MEMB     89       DOPC     H11A     HAL2     0.900000E-01   1.00800           0
     12163 MEMB     89       DOPC     H11B     HAL2     0.900000E-01   1.00800           0
     12164 MEMB     89       DOPC     P        PL        1.50000       30.9740           0
     12165 MEMB     89       DOPC     O13      O2L     -0.780000       15.9994           0
     12166 MEMB     89       DOPC     O14      O2L     -0.780000       15.9994           0
     12167 MEMB     89       DOPC     O12      OSLP    -0.570000       15.9994           0
     12168 MEMB     89       DOPC     O11      OSLP    -0.570000       15.9994           0
     12169 MEMB     89       DOPC     C1       CTL2    -0.800000E-01   12.0110           0
     12170 MEMB     89       DOPC     HA       HAL2     0.900000E-01   1.00800           0
     12171 MEMB     89       DOPC     HB       HAL2     0.900000E-01   1.00800           0
     12172 MEMB     89       DOPC     C2       CTL1     0.170000       12.0110           0
     12173 MEMB     89       DOPC     HS       HAL1     0.900000E-01   1.00800           0
     12174 MEMB     89       DOPC     O21      OSL     -0.490000       15.9994           0
     12175 MEMB     89       DOPC     C21      CL       0.900000       12.0110           0
     12176 MEMB     89       DOPC     O22      OBL     -0.630000       15.9994           0
     12177 MEMB     89       DOPC     C22      CTL2    -0.220000       12.0110           0
     12178 MEMB     89       DOPC     H2R      HAL2     0.900000E-01   1.00800           0
     12179 MEMB     89       DOPC     H2S      HAL2     0.900000E-01   1.00800           0
     12180 MEMB     89       DOPC     C3       CTL2     0.800000E-01   12.0110           0
     12181 MEMB     89       DOPC     HX       HAL2     0.900000E-01   1.00800           0
     12182 MEMB     89       DOPC     HY       HAL2     0.900000E-01   1.00800           0
     12183 MEMB     89       DOPC     O31      OSL     -0.490000       15.9994           0
     12184 MEMB     89       DOPC     C31      CL       0.900000       12.0110           0
     12185 MEMB     89       DOPC     O32      OBL     -0.630000       15.9994           0
     12186 MEMB     89       DOPC     C32      CTL2    -0.220000       12.0110           0
     12187 MEMB     89       DOPC     H2X      HAL2     0.900000E-01   1.00800           0
     12188 MEMB     89       DOPC     H2Y      HAL2     0.900000E-01   1.00800           0
     12189 MEMB     89       DOPC     C23      CTL2    -0.180000       12.0110           0
     12190 MEMB     89       DOPC     H3R      HAL2     0.900000E-01   1.00800           0
     12191 MEMB     89       DOPC     H3S      HAL2     0.900000E-01   1.00800           0
     12192 MEMB     89       DOPC     C24      CTL2    -0.180000       12.0110           0
     12193 MEMB     89       DOPC     H4R      HAL2     0.900000E-01   1.00800           0
     12194 MEMB     89       DOPC     H4S      HAL2     0.900000E-01   1.00800           0
     12195 MEMB     89       DOPC     C25      CTL2    -0.180000       12.0110           0
     12196 MEMB     89       DOPC     H5R      HAL2     0.900000E-01   1.00800           0
     12197 MEMB     89       DOPC     H5S      HAL2     0.900000E-01   1.00800           0
     12198 MEMB     89       DOPC     C26      CTL2    -0.180000       12.0110           0
     12199 MEMB     89       DOPC     H6R      HAL2     0.900000E-01   1.00800           0
     12200 MEMB     89       DOPC     H6S      HAL2     0.900000E-01   1.00800           0
     12201 MEMB     89       DOPC     C27      CTL2    -0.180000       12.0110           0
     12202 MEMB     89       DOPC     H7R      HAL2     0.900000E-01   1.00800           0
     12203 MEMB     89       DOPC     H7S      HAL2     0.900000E-01   1.00800           0
     12204 MEMB     89       DOPC     C28      CTL2    -0.180000       12.0110           0
     12205 MEMB     89       DOPC     H8R      HAL2     0.900000E-01   1.00800           0
     12206 MEMB     89       DOPC     H8S      HAL2     0.900000E-01   1.00800           0
     12207 MEMB     89       DOPC     C29      CEL1    -0.150000       12.0110           0
     12208 MEMB     89       DOPC     H9R      HEL1     0.150000       1.00800           0
     12209 MEMB     89       DOPC     C210     CEL1    -0.150000       12.0110           0
     12210 MEMB     89       DOPC     H10R     HEL1     0.150000       1.00800           0
     12211 MEMB     89       DOPC     C211     CTL2    -0.180000       12.0110           0
     12212 MEMB     89       DOPC     H11R     HAL2     0.900000E-01   1.00800           0
     12213 MEMB     89       DOPC     H11S     HAL2     0.900000E-01   1.00800           0
     12214 MEMB     89       DOPC     C212     CTL2    -0.180000       12.0110           0
     12215 MEMB     89       DOPC     H12R     HAL2     0.900000E-01   1.00800           0
     12216 MEMB     89       DOPC     H12S     HAL2     0.900000E-01   1.00800           0
     12217 MEMB     89       DOPC     C213     CTL2    -0.180000       12.0110           0
     12218 MEMB     89       DOPC     H13R     HAL2     0.900000E-01   1.00800           0
     12219 MEMB     89       DOPC     H13S     HAL2     0.900000E-01   1.00800           0
     12220 MEMB     89       DOPC     C214     CTL2    -0.180000       12.0110           0
     12221 MEMB     89       DOPC     H14R     HAL2     0.900000E-01   1.00800           0
     12222 MEMB     89       DOPC     H14S     HAL2     0.900000E-01   1.00800           0
     12223 MEMB     89       DOPC     C215     CTL2    -0.180000       12.0110           0
     12224 MEMB     89       DOPC     H15R     HAL2     0.900000E-01   1.00800           0
     12225 MEMB     89       DOPC     H15S     HAL2     0.900000E-01   1.00800           0
     12226 MEMB     89       DOPC     C216     CTL2    -0.180000       12.0110           0
     12227 MEMB     89       DOPC     H16R     HAL2     0.900000E-01   1.00800           0
     12228 MEMB     89       DOPC     H16S     HAL2     0.900000E-01   1.00800           0
     12229 MEMB     89       DOPC     C217     CTL2    -0.180000       12.0110           0
     12230 MEMB     89       DOPC     H17R     HAL2     0.900000E-01   1.00800           0
     12231 MEMB     89       DOPC     H17S     HAL2     0.900000E-01   1.00800           0
     12232 MEMB     89       DOPC     C218     CTL3    -0.270000       12.0110           0
     12233 MEMB     89       DOPC     H18R     HAL3     0.900000E-01   1.00800           0
     12234 MEMB     89       DOPC     H18S     HAL3     0.900000E-01   1.00800           0
     12235 MEMB     89       DOPC     H18T     HAL3     0.900000E-01   1.00800           0
     12236 MEMB     89       DOPC     C33      CTL2    -0.180000       12.0110           0
     12237 MEMB     89       DOPC     H3X      HAL2     0.900000E-01   1.00800           0
     12238 MEMB     89       DOPC     H3Y      HAL2     0.900000E-01   1.00800           0
     12239 MEMB     89       DOPC     C34      CTL2    -0.180000       12.0110           0
     12240 MEMB     89       DOPC     H4X      HAL2     0.900000E-01   1.00800           0
     12241 MEMB     89       DOPC     H4Y      HAL2     0.900000E-01   1.00800           0
     12242 MEMB     89       DOPC     C35      CTL2    -0.180000       12.0110           0
     12243 MEMB     89       DOPC     H5X      HAL2     0.900000E-01   1.00800           0
     12244 MEMB     89       DOPC     H5Y      HAL2     0.900000E-01   1.00800           0
     12245 MEMB     89       DOPC     C36      CTL2    -0.180000       12.0110           0
     12246 MEMB     89       DOPC     H6X      HAL2     0.900000E-01   1.00800           0
     12247 MEMB     89       DOPC     H6Y      HAL2     0.900000E-01   1.00800           0
     12248 MEMB     89       DOPC     C37      CTL2    -0.180000       12.0110           0
     12249 MEMB     89       DOPC     H7X      HAL2     0.900000E-01   1.00800           0
     12250 MEMB     89       DOPC     H7Y      HAL2     0.900000E-01   1.00800           0
     12251 MEMB     89       DOPC     C38      CTL2    -0.180000       12.0110           0
     12252 MEMB     89       DOPC     H8X      HAL2     0.900000E-01   1.00800           0
     12253 MEMB     89       DOPC     H8Y      HAL2     0.900000E-01   1.00800           0
     12254 MEMB     89       DOPC     C39      CEL1    -0.150000       12.0110           0
     12255 MEMB     89       DOPC     H9X      HEL1     0.150000       1.00800           0
     12256 MEMB     89       DOPC     C310     CEL1    -0.150000       12.0110           0
     12257 MEMB     89       DOPC     H10X     HEL1     0.150000       1.00800           0
     12258 MEMB     89       DOPC     C311     CTL2    -0.180000       12.0110           0
     12259 MEMB     89       DOPC     H11X     HAL2     0.900000E-01   1.00800           0
     12260 MEMB     89       DOPC     H11Y     HAL2     0.900000E-01   1.00800           0
     12261 MEMB     89       DOPC     C312     CTL2    -0.180000       12.0110           0
     12262 MEMB     89       DOPC     H12X     HAL2     0.900000E-01   1.00800           0
     12263 MEMB     89       DOPC     H12Y     HAL2     0.900000E-01   1.00800           0
     12264 MEMB     89       DOPC     C313     CTL2    -0.180000       12.0110           0
     12265 MEMB     89       DOPC     H13X     HAL2     0.900000E-01   1.00800           0
     12266 MEMB     89       DOPC     H13Y     HAL2     0.900000E-01   1.00800           0
     12267 MEMB     89       DOPC     C314     CTL2    -0.180000       12.0110           0
     12268 MEMB     89       DOPC     H14X     HAL2     0.900000E-01   1.00800           0
     12269 MEMB     89       DOPC     H14Y     HAL2     0.900000E-01   1.00800           0
     12270 MEMB     89       DOPC     C315     CTL2    -0.180000       12.0110           0
     12271 MEMB     89       DOPC     H15X     HAL2     0.900000E-01   1.00800           0
     12272 MEMB     89       DOPC     H15Y     HAL2     0.900000E-01   1.00800           0
     12273 MEMB     89       DOPC     C316     CTL2    -0.180000       12.0110           0
     12274 MEMB     89       DOPC     H16X     HAL2     0.900000E-01   1.00800           0
     12275 MEMB     89       DOPC     H16Y     HAL2     0.900000E-01   1.00800           0
     12276 MEMB     89       DOPC     C317     CTL2    -0.180000       12.0110           0
     12277 MEMB     89       DOPC     H17X     HAL2     0.900000E-01   1.00800           0
     12278 MEMB     89       DOPC     H17Y     HAL2     0.900000E-01   1.00800           0
     12279 MEMB     89       DOPC     C318     CTL3    -0.270000       12.0110           0
     12280 MEMB     89       DOPC     H18X     HAL3     0.900000E-01   1.00800           0
     12281 MEMB     89       DOPC     H18Y     HAL3     0.900000E-01   1.00800           0
     12282 MEMB     89       DOPC     H18Z     HAL3     0.900000E-01   1.00800           0
     12283 MEMB     90       DOPC     N        NTL     -0.600000       14.0070           0
     12284 MEMB     90       DOPC     C12      CTL2    -0.100000       12.0110           0
     12285 MEMB     90       DOPC     H12A     HL       0.250000       1.00800           0
     12286 MEMB     90       DOPC     H12B     HL       0.250000       1.00800           0
     12287 MEMB     90       DOPC     C13      CTL5    -0.350000       12.0110           0
     12288 MEMB     90       DOPC     H13A     HL       0.250000       1.00800           0
     12289 MEMB     90       DOPC     H13B     HL       0.250000       1.00800           0
     12290 MEMB     90       DOPC     H13C     HL       0.250000       1.00800           0
     12291 MEMB     90       DOPC     C14      CTL5    -0.350000       12.0110           0
     12292 MEMB     90       DOPC     H14A     HL       0.250000       1.00800           0
     12293 MEMB     90       DOPC     H14B     HL       0.250000       1.00800           0
     12294 MEMB     90       DOPC     H14C     HL       0.250000       1.00800           0
     12295 MEMB     90       DOPC     C15      CTL5    -0.350000       12.0110           0
     12296 MEMB     90       DOPC     H15A     HL       0.250000       1.00800           0
     12297 MEMB     90       DOPC     H15B     HL       0.250000       1.00800           0
     12298 MEMB     90       DOPC     H15C     HL       0.250000       1.00800           0
     12299 MEMB     90       DOPC     C11      CTL2    -0.800000E-01   12.0110           0
     12300 MEMB     90       DOPC     H11A     HAL2     0.900000E-01   1.00800           0
     12301 MEMB     90       DOPC     H11B     HAL2     0.900000E-01   1.00800           0
     12302 MEMB     90       DOPC     P        PL        1.50000       30.9740           0
     12303 MEMB     90       DOPC     O13      O2L     -0.780000       15.9994           0
     12304 MEMB     90       DOPC     O14      O2L     -0.780000       15.9994           0
     12305 MEMB     90       DOPC     O12      OSLP    -0.570000       15.9994           0
     12306 MEMB     90       DOPC     O11      OSLP    -0.570000       15.9994           0
     12307 MEMB     90       DOPC     C1       CTL2    -0.800000E-01   12.0110           0
     12308 MEMB     90       DOPC     HA       HAL2     0.900000E-01   1.00800           0
     12309 MEMB     90       DOPC     HB       HAL2     0.900000E-01   1.00800           0
     12310 MEMB     90       DOPC     C2       CTL1     0.170000       12.0110           0
     12311 MEMB     90       DOPC     HS       HAL1     0.900000E-01   1.00800           0
     12312 MEMB     90       DOPC     O21      OSL     -0.490000       15.9994           0
     12313 MEMB     90       DOPC     C21      CL       0.900000       12.0110           0
     12314 MEMB     90       DOPC     O22      OBL     -0.630000       15.9994           0
     12315 MEMB     90       DOPC     C22      CTL2    -0.220000       12.0110           0
     12316 MEMB     90       DOPC     H2R      HAL2     0.900000E-01   1.00800           0
     12317 MEMB     90       DOPC     H2S      HAL2     0.900000E-01   1.00800           0
     12318 MEMB     90       DOPC     C3       CTL2     0.800000E-01   12.0110           0
     12319 MEMB     90       DOPC     HX       HAL2     0.900000E-01   1.00800           0
     12320 MEMB     90       DOPC     HY       HAL2     0.900000E-01   1.00800           0
     12321 MEMB     90       DOPC     O31      OSL     -0.490000       15.9994           0
     12322 MEMB     90       DOPC     C31      CL       0.900000       12.0110           0
     12323 MEMB     90       DOPC     O32      OBL     -0.630000       15.9994           0
     12324 MEMB     90       DOPC     C32      CTL2    -0.220000       12.0110           0
     12325 MEMB     90       DOPC     H2X      HAL2     0.900000E-01   1.00800           0
     12326 MEMB     90       DOPC     H2Y      HAL2     0.900000E-01   1.00800           0
     12327 MEMB     90       DOPC     C23      CTL2    -0.180000       12.0110           0
     12328 MEMB     90       DOPC     H3R      HAL2     0.900000E-01   1.00800           0
     12329 MEMB     90       DOPC     H3S      HAL2     0.900000E-01   1.00800           0
     12330 MEMB     90       DOPC     C24      CTL2    -0.180000       12.0110           0
     12331 MEMB     90       DOPC     H4R      HAL2     0.900000E-01   1.00800           0
     12332 MEMB     90       DOPC     H4S      HAL2     0.900000E-01   1.00800           0
     12333 MEMB     90       DOPC     C25      CTL2    -0.180000       12.0110           0
     12334 MEMB     90       DOPC     H5R      HAL2     0.900000E-01   1.00800           0
     12335 MEMB     90       DOPC     H5S      HAL2     0.900000E-01   1.00800           0
     12336 MEMB     90       DOPC     C26      CTL2    -0.180000       12.0110           0
     12337 MEMB     90       DOPC     H6R      HAL2     0.900000E-01   1.00800           0
     12338 MEMB     90       DOPC     H6S      HAL2     0.900000E-01   1.00800           0
     12339 MEMB     90       DOPC     C27      CTL2    -0.180000       12.0110           0
     12340 MEMB     90       DOPC     H7R      HAL2     0.900000E-01   1.00800           0
     12341 MEMB     90       DOPC     H7S      HAL2     0.900000E-01   1.00800           0
     12342 MEMB     90       DOPC     C28      CTL2    -0.180000       12.0110           0
     12343 MEMB     90       DOPC     H8R      HAL2     0.900000E-01   1.00800           0
     12344 MEMB     90       DOPC     H8S      HAL2     0.900000E-01   1.00800           0
     12345 MEMB     90       DOPC     C29      CEL1    -0.150000       12.0110           0
     12346 MEMB     90       DOPC     H9R      HEL1     0.150000       1.00800           0
     12347 MEMB     90       DOPC     C210     CEL1    -0.150000       12.0110           0
     12348 MEMB     90       DOPC     H10R     HEL1     0.150000       1.00800           0
     12349 MEMB     90       DOPC     C211     CTL2    -0.180000       12.0110           0
     12350 MEMB     90       DOPC     H11R     HAL2     0.900000E-01   1.00800           0
     12351 MEMB     90       DOPC     H11S     HAL2     0.900000E-01   1.00800           0
     12352 MEMB     90       DOPC     C212     CTL2    -0.180000       12.0110           0
     12353 MEMB     90       DOPC     H12R     HAL2     0.900000E-01   1.00800           0
     12354 MEMB     90       DOPC     H12S     HAL2     0.900000E-01   1.00800           0
     12355 MEMB     90       DOPC     C213     CTL2    -0.180000       12.0110           0
     12356 MEMB     90       DOPC     H13R     HAL2     0.900000E-01   1.00800           0
     12357 MEMB     90       DOPC     H13S     HAL2     0.900000E-01   1.00800           0
     12358 MEMB     90       DOPC     C214     CTL2    -0.180000       12.0110           0
     12359 MEMB     90       DOPC     H14R     HAL2     0.900000E-01   1.00800           0
     12360 MEMB     90       DOPC     H14S     HAL2     0.900000E-01   1.00800           0
     12361 MEMB     90       DOPC     C215     CTL2    -0.180000       12.0110           0
     12362 MEMB     90       DOPC     H15R     HAL2     0.900000E-01   1.00800           0
     12363 MEMB     90       DOPC     H15S     HAL2     0.900000E-01   1.00800           0
     12364 MEMB     90       DOPC     C216     CTL2    -0.180000       12.0110           0
     12365 MEMB     90       DOPC     H16R     HAL2     0.900000E-01   1.00800           0
     12366 MEMB     90       DOPC     H16S     HAL2     0.900000E-01   1.00800           0
     12367 MEMB     90       DOPC     C217     CTL2    -0.180000       12.0110           0
     12368 MEMB     90       DOPC     H17R     HAL2     0.900000E-01   1.00800           0
     12369 MEMB     90       DOPC     H17S     HAL2     0.900000E-01   1.00800           0
     12370 MEMB     90       DOPC     C218     CTL3    -0.270000       12.0110           0
     12371 MEMB     90       DOPC     H18R     HAL3     0.900000E-01   1.00800           0
     12372 MEMB     90       DOPC     H18S     HAL3     0.900000E-01   1.00800           0
     12373 MEMB     90       DOPC     H18T     HAL3     0.900000E-01   1.00800           0
     12374 MEMB     90       DOPC     C33      CTL2    -0.180000       12.0110           0
     12375 MEMB     90       DOPC     H3X      HAL2     0.900000E-01   1.00800           0
     12376 MEMB     90       DOPC     H3Y      HAL2     0.900000E-01   1.00800           0
     12377 MEMB     90       DOPC     C34      CTL2    -0.180000       12.0110           0
     12378 MEMB     90       DOPC     H4X      HAL2     0.900000E-01   1.00800           0
     12379 MEMB     90       DOPC     H4Y      HAL2     0.900000E-01   1.00800           0
     12380 MEMB     90       DOPC     C35      CTL2    -0.180000       12.0110           0
     12381 MEMB     90       DOPC     H5X      HAL2     0.900000E-01   1.00800           0
     12382 MEMB     90       DOPC     H5Y      HAL2     0.900000E-01   1.00800           0
     12383 MEMB     90       DOPC     C36      CTL2    -0.180000       12.0110           0
     12384 MEMB     90       DOPC     H6X      HAL2     0.900000E-01   1.00800           0
     12385 MEMB     90       DOPC     H6Y      HAL2     0.900000E-01   1.00800           0
     12386 MEMB     90       DOPC     C37      CTL2    -0.180000       12.0110           0
     12387 MEMB     90       DOPC     H7X      HAL2     0.900000E-01   1.00800           0
     12388 MEMB     90       DOPC     H7Y      HAL2     0.900000E-01   1.00800           0
     12389 MEMB     90       DOPC     C38      CTL2    -0.180000       12.0110           0
     12390 MEMB     90       DOPC     H8X      HAL2     0.900000E-01   1.00800           0
     12391 MEMB     90       DOPC     H8Y      HAL2     0.900000E-01   1.00800           0
     12392 MEMB     90       DOPC     C39      CEL1    -0.150000       12.0110           0
     12393 MEMB     90       DOPC     H9X      HEL1     0.150000       1.00800           0
     12394 MEMB     90       DOPC     C310     CEL1    -0.150000       12.0110           0
     12395 MEMB     90       DOPC     H10X     HEL1     0.150000       1.00800           0
     12396 MEMB     90       DOPC     C311     CTL2    -0.180000       12.0110           0
     12397 MEMB     90       DOPC     H11X     HAL2     0.900000E-01   1.00800           0
     12398 MEMB     90       DOPC     H11Y     HAL2     0.900000E-01   1.00800           0
     12399 MEMB     90       DOPC     C312     CTL2    -0.180000       12.0110           0
     12400 MEMB     90       DOPC     H12X     HAL2     0.900000E-01   1.00800           0
     12401 MEMB     90       DOPC     H12Y     HAL2     0.900000E-01   1.00800           0
     12402 MEMB     90       DOPC     C313     CTL2    -0.180000       12.0110           0
     12403 MEMB     90       DOPC     H13X     HAL2     0.900000E-01   1.00800           0
     12404 MEMB     90       DOPC     H13Y     HAL2     0.900000E-01   1.00800           0
     12405 MEMB     90       DOPC     C314     CTL2    -0.180000       12.0110           0
     12406 MEMB     90       DOPC     H14X     HAL2     0.900000E-01   1.00800           0
     12407 MEMB     90       DOPC     H14Y     HAL2     0.900000E-01   1.00800           0
     12408 MEMB     90       DOPC     C315     CTL2    -0.180000       12.0110           0
     12409 MEMB     90       DOPC     H15X     HAL2     0.900000E-01   1.00800           0
     12410 MEMB     90       DOPC     H15Y     HAL2     0.900000E-01   1.00800           0
     12411 MEMB     90       DOPC     C316     CTL2    -0.180000       12.0110           0
     12412 MEMB     90       DOPC     H16X     HAL2     0.900000E-01   1.00800           0
     12413 MEMB     90       DOPC     H16Y     HAL2     0.900000E-01   1.00800           0
     12414 MEMB     90       DOPC     C317     CTL2    -0.180000       12.0110           0
     12415 MEMB     90       DOPC     H17X     HAL2     0.900000E-01   1.00800           0
     12416 MEMB     90       DOPC     H17Y     HAL2     0.900000E-01   1.00800           0
     12417 MEMB     90       DOPC     C318     CTL3    -0.270000       12.0110           0
     12418 MEMB     90       DOPC     H18X     HAL3     0.900000E-01   1.00800           0
     12419 MEMB     90       DOPC     H18Y     HAL3     0.900000E-01   1.00800           0
     12420 MEMB     90       DOPC     H18Z     HAL3     0.900000E-01   1.00800           0
     12421 MEMB     91       DOPC     N        NTL     -0.600000       14.0070           0
     12422 MEMB     91       DOPC     C12      CTL2    -0.100000       12.0110           0
     12423 MEMB     91       DOPC     H12A     HL       0.250000       1.00800           0
     12424 MEMB     91       DOPC     H12B     HL       0.250000       1.00800           0
     12425 MEMB     91       DOPC     C13      CTL5    -0.350000       12.0110           0
     12426 MEMB     91       DOPC     H13A     HL       0.250000       1.00800           0
     12427 MEMB     91       DOPC     H13B     HL       0.250000       1.00800           0
     12428 MEMB     91       DOPC     H13C     HL       0.250000       1.00800           0
     12429 MEMB     91       DOPC     C14      CTL5    -0.350000       12.0110           0
     12430 MEMB     91       DOPC     H14A     HL       0.250000       1.00800           0
     12431 MEMB     91       DOPC     H14B     HL       0.250000       1.00800           0
     12432 MEMB     91       DOPC     H14C     HL       0.250000       1.00800           0
     12433 MEMB     91       DOPC     C15      CTL5    -0.350000       12.0110           0
     12434 MEMB     91       DOPC     H15A     HL       0.250000       1.00800           0
     12435 MEMB     91       DOPC     H15B     HL       0.250000       1.00800           0
     12436 MEMB     91       DOPC     H15C     HL       0.250000       1.00800           0
     12437 MEMB     91       DOPC     C11      CTL2    -0.800000E-01   12.0110           0
     12438 MEMB     91       DOPC     H11A     HAL2     0.900000E-01   1.00800           0
     12439 MEMB     91       DOPC     H11B     HAL2     0.900000E-01   1.00800           0
     12440 MEMB     91       DOPC     P        PL        1.50000       30.9740           0
     12441 MEMB     91       DOPC     O13      O2L     -0.780000       15.9994           0
     12442 MEMB     91       DOPC     O14      O2L     -0.780000       15.9994           0
     12443 MEMB     91       DOPC     O12      OSLP    -0.570000       15.9994           0
     12444 MEMB     91       DOPC     O11      OSLP    -0.570000       15.9994           0
     12445 MEMB     91       DOPC     C1       CTL2    -0.800000E-01   12.0110           0
     12446 MEMB     91       DOPC     HA       HAL2     0.900000E-01   1.00800           0
     12447 MEMB     91       DOPC     HB       HAL2     0.900000E-01   1.00800           0
     12448 MEMB     91       DOPC     C2       CTL1     0.170000       12.0110           0
     12449 MEMB     91       DOPC     HS       HAL1     0.900000E-01   1.00800           0
     12450 MEMB     91       DOPC     O21      OSL     -0.490000       15.9994           0
     12451 MEMB     91       DOPC     C21      CL       0.900000       12.0110           0
     12452 MEMB     91       DOPC     O22      OBL     -0.630000       15.9994           0
     12453 MEMB     91       DOPC     C22      CTL2    -0.220000       12.0110           0
     12454 MEMB     91       DOPC     H2R      HAL2     0.900000E-01   1.00800           0
     12455 MEMB     91       DOPC     H2S      HAL2     0.900000E-01   1.00800           0
     12456 MEMB     91       DOPC     C3       CTL2     0.800000E-01   12.0110           0
     12457 MEMB     91       DOPC     HX       HAL2     0.900000E-01   1.00800           0
     12458 MEMB     91       DOPC     HY       HAL2     0.900000E-01   1.00800           0
     12459 MEMB     91       DOPC     O31      OSL     -0.490000       15.9994           0
     12460 MEMB     91       DOPC     C31      CL       0.900000       12.0110           0
     12461 MEMB     91       DOPC     O32      OBL     -0.630000       15.9994           0
     12462 MEMB     91       DOPC     C32      CTL2    -0.220000       12.0110           0
     12463 MEMB     91       DOPC     H2X      HAL2     0.900000E-01   1.00800           0
     12464 MEMB     91       DOPC     H2Y      HAL2     0.900000E-01   1.00800           0
     12465 MEMB     91       DOPC     C23      CTL2    -0.180000       12.0110           0
     12466 MEMB     91       DOPC     H3R      HAL2     0.900000E-01   1.00800           0
     12467 MEMB     91       DOPC     H3S      HAL2     0.900000E-01   1.00800           0
     12468 MEMB     91       DOPC     C24      CTL2    -0.180000       12.0110           0
     12469 MEMB     91       DOPC     H4R      HAL2     0.900000E-01   1.00800           0
     12470 MEMB     91       DOPC     H4S      HAL2     0.900000E-01   1.00800           0
     12471 MEMB     91       DOPC     C25      CTL2    -0.180000       12.0110           0
     12472 MEMB     91       DOPC     H5R      HAL2     0.900000E-01   1.00800           0
     12473 MEMB     91       DOPC     H5S      HAL2     0.900000E-01   1.00800           0
     12474 MEMB     91       DOPC     C26      CTL2    -0.180000       12.0110           0
     12475 MEMB     91       DOPC     H6R      HAL2     0.900000E-01   1.00800           0
     12476 MEMB     91       DOPC     H6S      HAL2     0.900000E-01   1.00800           0
     12477 MEMB     91       DOPC     C27      CTL2    -0.180000       12.0110           0
     12478 MEMB     91       DOPC     H7R      HAL2     0.900000E-01   1.00800           0
     12479 MEMB     91       DOPC     H7S      HAL2     0.900000E-01   1.00800           0
     12480 MEMB     91       DOPC     C28      CTL2    -0.180000       12.0110           0
     12481 MEMB     91       DOPC     H8R      HAL2     0.900000E-01   1.00800           0
     12482 MEMB     91       DOPC     H8S      HAL2     0.900000E-01   1.00800           0
     12483 MEMB     91       DOPC     C29      CEL1    -0.150000       12.0110           0
     12484 MEMB     91       DOPC     H9R      HEL1     0.150000       1.00800           0
     12485 MEMB     91       DOPC     C210     CEL1    -0.150000       12.0110           0
     12486 MEMB     91       DOPC     H10R     HEL1     0.150000       1.00800           0
     12487 MEMB     91       DOPC     C211     CTL2    -0.180000       12.0110           0
     12488 MEMB     91       DOPC     H11R     HAL2     0.900000E-01   1.00800           0
     12489 MEMB     91       DOPC     H11S     HAL2     0.900000E-01   1.00800           0
     12490 MEMB     91       DOPC     C212     CTL2    -0.180000       12.0110           0
     12491 MEMB     91       DOPC     H12R     HAL2     0.900000E-01   1.00800           0
     12492 MEMB     91       DOPC     H12S     HAL2     0.900000E-01   1.00800           0
     12493 MEMB     91       DOPC     C213     CTL2    -0.180000       12.0110           0
     12494 MEMB     91       DOPC     H13R     HAL2     0.900000E-01   1.00800           0
     12495 MEMB     91       DOPC     H13S     HAL2     0.900000E-01   1.00800           0
     12496 MEMB     91       DOPC     C214     CTL2    -0.180000       12.0110           0
     12497 MEMB     91       DOPC     H14R     HAL2     0.900000E-01   1.00800           0
     12498 MEMB     91       DOPC     H14S     HAL2     0.900000E-01   1.00800           0
     12499 MEMB     91       DOPC     C215     CTL2    -0.180000       12.0110           0
     12500 MEMB     91       DOPC     H15R     HAL2     0.900000E-01   1.00800           0
     12501 MEMB     91       DOPC     H15S     HAL2     0.900000E-01   1.00800           0
     12502 MEMB     91       DOPC     C216     CTL2    -0.180000       12.0110           0
     12503 MEMB     91       DOPC     H16R     HAL2     0.900000E-01   1.00800           0
     12504 MEMB     91       DOPC     H16S     HAL2     0.900000E-01   1.00800           0
     12505 MEMB     91       DOPC     C217     CTL2    -0.180000       12.0110           0
     12506 MEMB     91       DOPC     H17R     HAL2     0.900000E-01   1.00800           0
     12507 MEMB     91       DOPC     H17S     HAL2     0.900000E-01   1.00800           0
     12508 MEMB     91       DOPC     C218     CTL3    -0.270000       12.0110           0
     12509 MEMB     91       DOPC     H18R     HAL3     0.900000E-01   1.00800           0
     12510 MEMB     91       DOPC     H18S     HAL3     0.900000E-01   1.00800           0
     12511 MEMB     91       DOPC     H18T     HAL3     0.900000E-01   1.00800           0
     12512 MEMB     91       DOPC     C33      CTL2    -0.180000       12.0110           0
     12513 MEMB     91       DOPC     H3X      HAL2     0.900000E-01   1.00800           0
     12514 MEMB     91       DOPC     H3Y      HAL2     0.900000E-01   1.00800           0
     12515 MEMB     91       DOPC     C34      CTL2    -0.180000       12.0110           0
     12516 MEMB     91       DOPC     H4X      HAL2     0.900000E-01   1.00800           0
     12517 MEMB     91       DOPC     H4Y      HAL2     0.900000E-01   1.00800           0
     12518 MEMB     91       DOPC     C35      CTL2    -0.180000       12.0110           0
     12519 MEMB     91       DOPC     H5X      HAL2     0.900000E-01   1.00800           0
     12520 MEMB     91       DOPC     H5Y      HAL2     0.900000E-01   1.00800           0
     12521 MEMB     91       DOPC     C36      CTL2    -0.180000       12.0110           0
     12522 MEMB     91       DOPC     H6X      HAL2     0.900000E-01   1.00800           0
     12523 MEMB     91       DOPC     H6Y      HAL2     0.900000E-01   1.00800           0
     12524 MEMB     91       DOPC     C37      CTL2    -0.180000       12.0110           0
     12525 MEMB     91       DOPC     H7X      HAL2     0.900000E-01   1.00800           0
     12526 MEMB     91       DOPC     H7Y      HAL2     0.900000E-01   1.00800           0
     12527 MEMB     91       DOPC     C38      CTL2    -0.180000       12.0110           0
     12528 MEMB     91       DOPC     H8X      HAL2     0.900000E-01   1.00800           0
     12529 MEMB     91       DOPC     H8Y      HAL2     0.900000E-01   1.00800           0
     12530 MEMB     91       DOPC     C39      CEL1    -0.150000       12.0110           0
     12531 MEMB     91       DOPC     H9X      HEL1     0.150000       1.00800           0
     12532 MEMB     91       DOPC     C310     CEL1    -0.150000       12.0110           0
     12533 MEMB     91       DOPC     H10X     HEL1     0.150000       1.00800           0
     12534 MEMB     91       DOPC     C311     CTL2    -0.180000       12.0110           0
     12535 MEMB     91       DOPC     H11X     HAL2     0.900000E-01   1.00800           0
     12536 MEMB     91       DOPC     H11Y     HAL2     0.900000E-01   1.00800           0
     12537 MEMB     91       DOPC     C312     CTL2    -0.180000       12.0110           0
     12538 MEMB     91       DOPC     H12X     HAL2     0.900000E-01   1.00800           0
     12539 MEMB     91       DOPC     H12Y     HAL2     0.900000E-01   1.00800           0
     12540 MEMB     91       DOPC     C313     CTL2    -0.180000       12.0110           0
     12541 MEMB     91       DOPC     H13X     HAL2     0.900000E-01   1.00800           0
     12542 MEMB     91       DOPC     H13Y     HAL2     0.900000E-01   1.00800           0
     12543 MEMB     91       DOPC     C314     CTL2    -0.180000       12.0110           0
     12544 MEMB     91       DOPC     H14X     HAL2     0.900000E-01   1.00800           0
     12545 MEMB     91       DOPC     H14Y     HAL2     0.900000E-01   1.00800           0
     12546 MEMB     91       DOPC     C315     CTL2    -0.180000       12.0110           0
     12547 MEMB     91       DOPC     H15X     HAL2     0.900000E-01   1.00800           0
     12548 MEMB     91       DOPC     H15Y     HAL2     0.900000E-01   1.00800           0
     12549 MEMB     91       DOPC     C316     CTL2    -0.180000       12.0110           0
     12550 MEMB     91       DOPC     H16X     HAL2     0.900000E-01   1.00800           0
     12551 MEMB     91       DOPC     H16Y     HAL2     0.900000E-01   1.00800           0
     12552 MEMB     91       DOPC     C317     CTL2    -0.180000       12.0110           0
     12553 MEMB     91       DOPC     H17X     HAL2     0.900000E-01   1.00800           0
     12554 MEMB     91       DOPC     H17Y     HAL2     0.900000E-01   1.00800           0
     12555 MEMB     91       DOPC     C318     CTL3    -0.270000       12.0110           0
     12556 MEMB     91       DOPC     H18X     HAL3     0.900000E-01   1.00800           0
     12557 MEMB     91       DOPC     H18Y     HAL3     0.900000E-01   1.00800           0
     12558 MEMB     91       DOPC     H18Z     HAL3     0.900000E-01   1.00800           0
     12559 MEMB     92       DOPC     N        NTL     -0.600000       14.0070           0
     12560 MEMB     92       DOPC     C12      CTL2    -0.100000       12.0110           0
     12561 MEMB     92       DOPC     H12A     HL       0.250000       1.00800           0
     12562 MEMB     92       DOPC     H12B     HL       0.250000       1.00800           0
     12563 MEMB     92       DOPC     C13      CTL5    -0.350000       12.0110           0
     12564 MEMB     92       DOPC     H13A     HL       0.250000       1.00800           0
     12565 MEMB     92       DOPC     H13B     HL       0.250000       1.00800           0
     12566 MEMB     92       DOPC     H13C     HL       0.250000       1.00800           0
     12567 MEMB     92       DOPC     C14      CTL5    -0.350000       12.0110           0
     12568 MEMB     92       DOPC     H14A     HL       0.250000       1.00800           0
     12569 MEMB     92       DOPC     H14B     HL       0.250000       1.00800           0
     12570 MEMB     92       DOPC     H14C     HL       0.250000       1.00800           0
     12571 MEMB     92       DOPC     C15      CTL5    -0.350000       12.0110           0
     12572 MEMB     92       DOPC     H15A     HL       0.250000       1.00800           0
     12573 MEMB     92       DOPC     H15B     HL       0.250000       1.00800           0
     12574 MEMB     92       DOPC     H15C     HL       0.250000       1.00800           0
     12575 MEMB     92       DOPC     C11      CTL2    -0.800000E-01   12.0110           0
     12576 MEMB     92       DOPC     H11A     HAL2     0.900000E-01   1.00800           0
     12577 MEMB     92       DOPC     H11B     HAL2     0.900000E-01   1.00800           0
     12578 MEMB     92       DOPC     P        PL        1.50000       30.9740           0
     12579 MEMB     92       DOPC     O13      O2L     -0.780000       15.9994           0
     12580 MEMB     92       DOPC     O14      O2L     -0.780000       15.9994           0
     12581 MEMB     92       DOPC     O12      OSLP    -0.570000       15.9994           0
     12582 MEMB     92       DOPC     O11      OSLP    -0.570000       15.9994           0
     12583 MEMB     92       DOPC     C1       CTL2    -0.800000E-01   12.0110           0
     12584 MEMB     92       DOPC     HA       HAL2     0.900000E-01   1.00800           0
     12585 MEMB     92       DOPC     HB       HAL2     0.900000E-01   1.00800           0
     12586 MEMB     92       DOPC     C2       CTL1     0.170000       12.0110           0
     12587 MEMB     92       DOPC     HS       HAL1     0.900000E-01   1.00800           0
     12588 MEMB     92       DOPC     O21      OSL     -0.490000       15.9994           0
     12589 MEMB     92       DOPC     C21      CL       0.900000       12.0110           0
     12590 MEMB     92       DOPC     O22      OBL     -0.630000       15.9994           0
     12591 MEMB     92       DOPC     C22      CTL2    -0.220000       12.0110           0
     12592 MEMB     92       DOPC     H2R      HAL2     0.900000E-01   1.00800           0
     12593 MEMB     92       DOPC     H2S      HAL2     0.900000E-01   1.00800           0
     12594 MEMB     92       DOPC     C3       CTL2     0.800000E-01   12.0110           0
     12595 MEMB     92       DOPC     HX       HAL2     0.900000E-01   1.00800           0
     12596 MEMB     92       DOPC     HY       HAL2     0.900000E-01   1.00800           0
     12597 MEMB     92       DOPC     O31      OSL     -0.490000       15.9994           0
     12598 MEMB     92       DOPC     C31      CL       0.900000       12.0110           0
     12599 MEMB     92       DOPC     O32      OBL     -0.630000       15.9994           0
     12600 MEMB     92       DOPC     C32      CTL2    -0.220000       12.0110           0
     12601 MEMB     92       DOPC     H2X      HAL2     0.900000E-01   1.00800           0
     12602 MEMB     92       DOPC     H2Y      HAL2     0.900000E-01   1.00800           0
     12603 MEMB     92       DOPC     C23      CTL2    -0.180000       12.0110           0
     12604 MEMB     92       DOPC     H3R      HAL2     0.900000E-01   1.00800           0
     12605 MEMB     92       DOPC     H3S      HAL2     0.900000E-01   1.00800           0
     12606 MEMB     92       DOPC     C24      CTL2    -0.180000       12.0110           0
     12607 MEMB     92       DOPC     H4R      HAL2     0.900000E-01   1.00800           0
     12608 MEMB     92       DOPC     H4S      HAL2     0.900000E-01   1.00800           0
     12609 MEMB     92       DOPC     C25      CTL2    -0.180000       12.0110           0
     12610 MEMB     92       DOPC     H5R      HAL2     0.900000E-01   1.00800           0
     12611 MEMB     92       DOPC     H5S      HAL2     0.900000E-01   1.00800           0
     12612 MEMB     92       DOPC     C26      CTL2    -0.180000       12.0110           0
     12613 MEMB     92       DOPC     H6R      HAL2     0.900000E-01   1.00800           0
     12614 MEMB     92       DOPC     H6S      HAL2     0.900000E-01   1.00800           0
     12615 MEMB     92       DOPC     C27      CTL2    -0.180000       12.0110           0
     12616 MEMB     92       DOPC     H7R      HAL2     0.900000E-01   1.00800           0
     12617 MEMB     92       DOPC     H7S      HAL2     0.900000E-01   1.00800           0
     12618 MEMB     92       DOPC     C28      CTL2    -0.180000       12.0110           0
     12619 MEMB     92       DOPC     H8R      HAL2     0.900000E-01   1.00800           0
     12620 MEMB     92       DOPC     H8S      HAL2     0.900000E-01   1.00800           0
     12621 MEMB     92       DOPC     C29      CEL1    -0.150000       12.0110           0
     12622 MEMB     92       DOPC     H9R      HEL1     0.150000       1.00800           0
     12623 MEMB     92       DOPC     C210     CEL1    -0.150000       12.0110           0
     12624 MEMB     92       DOPC     H10R     HEL1     0.150000       1.00800           0
     12625 MEMB     92       DOPC     C211     CTL2    -0.180000       12.0110           0
     12626 MEMB     92       DOPC     H11R     HAL2     0.900000E-01   1.00800           0
     12627 MEMB     92       DOPC     H11S     HAL2     0.900000E-01   1.00800           0
     12628 MEMB     92       DOPC     C212     CTL2    -0.180000       12.0110           0
     12629 MEMB     92       DOPC     H12R     HAL2     0.900000E-01   1.00800           0
     12630 MEMB     92       DOPC     H12S     HAL2     0.900000E-01   1.00800           0
     12631 MEMB     92       DOPC     C213     CTL2    -0.180000       12.0110           0
     12632 MEMB     92       DOPC     H13R     HAL2     0.900000E-01   1.00800           0
     12633 MEMB     92       DOPC     H13S     HAL2     0.900000E-01   1.00800           0
     12634 MEMB     92       DOPC     C214     CTL2    -0.180000       12.0110           0
     12635 MEMB     92       DOPC     H14R     HAL2     0.900000E-01   1.00800           0
     12636 MEMB     92       DOPC     H14S     HAL2     0.900000E-01   1.00800           0
     12637 MEMB     92       DOPC     C215     CTL2    -0.180000       12.0110           0
     12638 MEMB     92       DOPC     H15R     HAL2     0.900000E-01   1.00800           0
     12639 MEMB     92       DOPC     H15S     HAL2     0.900000E-01   1.00800           0
     12640 MEMB     92       DOPC     C216     CTL2    -0.180000       12.0110           0
     12641 MEMB     92       DOPC     H16R     HAL2     0.900000E-01   1.00800           0
     12642 MEMB     92       DOPC     H16S     HAL2     0.900000E-01   1.00800           0
     12643 MEMB     92       DOPC     C217     CTL2    -0.180000       12.0110           0
     12644 MEMB     92       DOPC     H17R     HAL2     0.900000E-01   1.00800           0
     12645 MEMB     92       DOPC     H17S     HAL2     0.900000E-01   1.00800           0
     12646 MEMB     92       DOPC     C218     CTL3    -0.270000       12.0110           0
     12647 MEMB     92       DOPC     H18R     HAL3     0.900000E-01   1.00800           0
     12648 MEMB     92       DOPC     H18S     HAL3     0.900000E-01   1.00800           0
     12649 MEMB     92       DOPC     H18T     HAL3     0.900000E-01   1.00800           0
     12650 MEMB     92       DOPC     C33      CTL2    -0.180000       12.0110           0
     12651 MEMB     92       DOPC     H3X      HAL2     0.900000E-01   1.00800           0
     12652 MEMB     92       DOPC     H3Y      HAL2     0.900000E-01   1.00800           0
     12653 MEMB     92       DOPC     C34      CTL2    -0.180000       12.0110           0
     12654 MEMB     92       DOPC     H4X      HAL2     0.900000E-01   1.00800           0
     12655 MEMB     92       DOPC     H4Y      HAL2     0.900000E-01   1.00800           0
     12656 MEMB     92       DOPC     C35      CTL2    -0.180000       12.0110           0
     12657 MEMB     92       DOPC     H5X      HAL2     0.900000E-01   1.00800           0
     12658 MEMB     92       DOPC     H5Y      HAL2     0.900000E-01   1.00800           0
     12659 MEMB     92       DOPC     C36      CTL2    -0.180000       12.0110           0
     12660 MEMB     92       DOPC     H6X      HAL2     0.900000E-01   1.00800           0
     12661 MEMB     92       DOPC     H6Y      HAL2     0.900000E-01   1.00800           0
     12662 MEMB     92       DOPC     C37      CTL2    -0.180000       12.0110           0
     12663 MEMB     92       DOPC     H7X      HAL2     0.900000E-01   1.00800           0
     12664 MEMB     92       DOPC     H7Y      HAL2     0.900000E-01   1.00800           0
     12665 MEMB     92       DOPC     C38      CTL2    -0.180000       12.0110           0
     12666 MEMB     92       DOPC     H8X      HAL2     0.900000E-01   1.00800           0
     12667 MEMB     92       DOPC     H8Y      HAL2     0.900000E-01   1.00800           0
     12668 MEMB     92       DOPC     C39      CEL1    -0.150000       12.0110           0
     12669 MEMB     92       DOPC     H9X      HEL1     0.150000       1.00800           0
     12670 MEMB     92       DOPC     C310     CEL1    -0.150000       12.0110           0
     12671 MEMB     92       DOPC     H10X     HEL1     0.150000       1.00800           0
     12672 MEMB     92       DOPC     C311     CTL2    -0.180000       12.0110           0
     12673 MEMB     92       DOPC     H11X     HAL2     0.900000E-01   1.00800           0
     12674 MEMB     92       DOPC     H11Y     HAL2     0.900000E-01   1.00800           0
     12675 MEMB     92       DOPC     C312     CTL2    -0.180000       12.0110           0
     12676 MEMB     92       DOPC     H12X     HAL2     0.900000E-01   1.00800           0
     12677 MEMB     92       DOPC     H12Y     HAL2     0.900000E-01   1.00800           0
     12678 MEMB     92       DOPC     C313     CTL2    -0.180000       12.0110           0
     12679 MEMB     92       DOPC     H13X     HAL2     0.900000E-01   1.00800           0
     12680 MEMB     92       DOPC     H13Y     HAL2     0.900000E-01   1.00800           0
     12681 MEMB     92       DOPC     C314     CTL2    -0.180000       12.0110           0
     12682 MEMB     92       DOPC     H14X     HAL2     0.900000E-01   1.00800           0
     12683 MEMB     92       DOPC     H14Y     HAL2     0.900000E-01   1.00800           0
     12684 MEMB     92       DOPC     C315     CTL2    -0.180000       12.0110           0
     12685 MEMB     92       DOPC     H15X     HAL2     0.900000E-01   1.00800           0
     12686 MEMB     92       DOPC     H15Y     HAL2     0.900000E-01   1.00800           0
     12687 MEMB     92       DOPC     C316     CTL2    -0.180000       12.0110           0
     12688 MEMB     92       DOPC     H16X     HAL2     0.900000E-01   1.00800           0
     12689 MEMB     92       DOPC     H16Y     HAL2     0.900000E-01   1.00800           0
     12690 MEMB     92       DOPC     C317     CTL2    -0.180000       12.0110           0
     12691 MEMB     92       DOPC     H17X     HAL2     0.900000E-01   1.00800           0
     12692 MEMB     92       DOPC     H17Y     HAL2     0.900000E-01   1.00800           0
     12693 MEMB     92       DOPC     C318     CTL3    -0.270000       12.0110           0
     12694 MEMB     92       DOPC     H18X     HAL3     0.900000E-01   1.00800           0
     12695 MEMB     92       DOPC     H18Y     HAL3     0.900000E-01   1.00800           0
     12696 MEMB     92       DOPC     H18Z     HAL3     0.900000E-01   1.00800           0
     12697 MEMB     93       DOPC     N        NTL     -0.600000       14.0070           0
     12698 MEMB     93       DOPC     C12      CTL2    -0.100000       12.0110           0
     12699 MEMB     93       DOPC     H12A     HL       0.250000       1.00800           0
     12700 MEMB     93       DOPC     H12B     HL       0.250000       1.00800           0
     12701 MEMB     93       DOPC     C13      CTL5    -0.350000       12.0110           0
     12702 MEMB     93       DOPC     H13A     HL       0.250000       1.00800           0
     12703 MEMB     93       DOPC     H13B     HL       0.250000       1.00800           0
     12704 MEMB     93       DOPC     H13C     HL       0.250000       1.00800           0
     12705 MEMB     93       DOPC     C14      CTL5    -0.350000       12.0110           0
     12706 MEMB     93       DOPC     H14A     HL       0.250000       1.00800           0
     12707 MEMB     93       DOPC     H14B     HL       0.250000       1.00800           0
     12708 MEMB     93       DOPC     H14C     HL       0.250000       1.00800           0
     12709 MEMB     93       DOPC     C15      CTL5    -0.350000       12.0110           0
     12710 MEMB     93       DOPC     H15A     HL       0.250000       1.00800           0
     12711 MEMB     93       DOPC     H15B     HL       0.250000       1.00800           0
     12712 MEMB     93       DOPC     H15C     HL       0.250000       1.00800           0
     12713 MEMB     93       DOPC     C11      CTL2    -0.800000E-01   12.0110           0
     12714 MEMB     93       DOPC     H11A     HAL2     0.900000E-01   1.00800           0
     12715 MEMB     93       DOPC     H11B     HAL2     0.900000E-01   1.00800           0
     12716 MEMB     93       DOPC     P        PL        1.50000       30.9740           0
     12717 MEMB     93       DOPC     O13      O2L     -0.780000       15.9994           0
     12718 MEMB     93       DOPC     O14      O2L     -0.780000       15.9994           0
     12719 MEMB     93       DOPC     O12      OSLP    -0.570000       15.9994           0
     12720 MEMB     93       DOPC     O11      OSLP    -0.570000       15.9994           0
     12721 MEMB     93       DOPC     C1       CTL2    -0.800000E-01   12.0110           0
     12722 MEMB     93       DOPC     HA       HAL2     0.900000E-01   1.00800           0
     12723 MEMB     93       DOPC     HB       HAL2     0.900000E-01   1.00800           0
     12724 MEMB     93       DOPC     C2       CTL1     0.170000       12.0110           0
     12725 MEMB     93       DOPC     HS       HAL1     0.900000E-01   1.00800           0
     12726 MEMB     93       DOPC     O21      OSL     -0.490000       15.9994           0
     12727 MEMB     93       DOPC     C21      CL       0.900000       12.0110           0
     12728 MEMB     93       DOPC     O22      OBL     -0.630000       15.9994           0
     12729 MEMB     93       DOPC     C22      CTL2    -0.220000       12.0110           0
     12730 MEMB     93       DOPC     H2R      HAL2     0.900000E-01   1.00800           0
     12731 MEMB     93       DOPC     H2S      HAL2     0.900000E-01   1.00800           0
     12732 MEMB     93       DOPC     C3       CTL2     0.800000E-01   12.0110           0
     12733 MEMB     93       DOPC     HX       HAL2     0.900000E-01   1.00800           0
     12734 MEMB     93       DOPC     HY       HAL2     0.900000E-01   1.00800           0
     12735 MEMB     93       DOPC     O31      OSL     -0.490000       15.9994           0
     12736 MEMB     93       DOPC     C31      CL       0.900000       12.0110           0
     12737 MEMB     93       DOPC     O32      OBL     -0.630000       15.9994           0
     12738 MEMB     93       DOPC     C32      CTL2    -0.220000       12.0110           0
     12739 MEMB     93       DOPC     H2X      HAL2     0.900000E-01   1.00800           0
     12740 MEMB     93       DOPC     H2Y      HAL2     0.900000E-01   1.00800           0
     12741 MEMB     93       DOPC     C23      CTL2    -0.180000       12.0110           0
     12742 MEMB     93       DOPC     H3R      HAL2     0.900000E-01   1.00800           0
     12743 MEMB     93       DOPC     H3S      HAL2     0.900000E-01   1.00800           0
     12744 MEMB     93       DOPC     C24      CTL2    -0.180000       12.0110           0
     12745 MEMB     93       DOPC     H4R      HAL2     0.900000E-01   1.00800           0
     12746 MEMB     93       DOPC     H4S      HAL2     0.900000E-01   1.00800           0
     12747 MEMB     93       DOPC     C25      CTL2    -0.180000       12.0110           0
     12748 MEMB     93       DOPC     H5R      HAL2     0.900000E-01   1.00800           0
     12749 MEMB     93       DOPC     H5S      HAL2     0.900000E-01   1.00800           0
     12750 MEMB     93       DOPC     C26      CTL2    -0.180000       12.0110           0
     12751 MEMB     93       DOPC     H6R      HAL2     0.900000E-01   1.00800           0
     12752 MEMB     93       DOPC     H6S      HAL2     0.900000E-01   1.00800           0
     12753 MEMB     93       DOPC     C27      CTL2    -0.180000       12.0110           0
     12754 MEMB     93       DOPC     H7R      HAL2     0.900000E-01   1.00800           0
     12755 MEMB     93       DOPC     H7S      HAL2     0.900000E-01   1.00800           0
     12756 MEMB     93       DOPC     C28      CTL2    -0.180000       12.0110           0
     12757 MEMB     93       DOPC     H8R      HAL2     0.900000E-01   1.00800           0
     12758 MEMB     93       DOPC     H8S      HAL2     0.900000E-01   1.00800           0
     12759 MEMB     93       DOPC     C29      CEL1    -0.150000       12.0110           0
     12760 MEMB     93       DOPC     H9R      HEL1     0.150000       1.00800           0
     12761 MEMB     93       DOPC     C210     CEL1    -0.150000       12.0110           0
     12762 MEMB     93       DOPC     H10R     HEL1     0.150000       1.00800           0
     12763 MEMB     93       DOPC     C211     CTL2    -0.180000       12.0110           0
     12764 MEMB     93       DOPC     H11R     HAL2     0.900000E-01   1.00800           0
     12765 MEMB     93       DOPC     H11S     HAL2     0.900000E-01   1.00800           0
     12766 MEMB     93       DOPC     C212     CTL2    -0.180000       12.0110           0
     12767 MEMB     93       DOPC     H12R     HAL2     0.900000E-01   1.00800           0
     12768 MEMB     93       DOPC     H12S     HAL2     0.900000E-01   1.00800           0
     12769 MEMB     93       DOPC     C213     CTL2    -0.180000       12.0110           0
     12770 MEMB     93       DOPC     H13R     HAL2     0.900000E-01   1.00800           0
     12771 MEMB     93       DOPC     H13S     HAL2     0.900000E-01   1.00800           0
     12772 MEMB     93       DOPC     C214     CTL2    -0.180000       12.0110           0
     12773 MEMB     93       DOPC     H14R     HAL2     0.900000E-01   1.00800           0
     12774 MEMB     93       DOPC     H14S     HAL2     0.900000E-01   1.00800           0
     12775 MEMB     93       DOPC     C215     CTL2    -0.180000       12.0110           0
     12776 MEMB     93       DOPC     H15R     HAL2     0.900000E-01   1.00800           0
     12777 MEMB     93       DOPC     H15S     HAL2     0.900000E-01   1.00800           0
     12778 MEMB     93       DOPC     C216     CTL2    -0.180000       12.0110           0
     12779 MEMB     93       DOPC     H16R     HAL2     0.900000E-01   1.00800           0
     12780 MEMB     93       DOPC     H16S     HAL2     0.900000E-01   1.00800           0
     12781 MEMB     93       DOPC     C217     CTL2    -0.180000       12.0110           0
     12782 MEMB     93       DOPC     H17R     HAL2     0.900000E-01   1.00800           0
     12783 MEMB     93       DOPC     H17S     HAL2     0.900000E-01   1.00800           0
     12784 MEMB     93       DOPC     C218     CTL3    -0.270000       12.0110           0
     12785 MEMB     93       DOPC     H18R     HAL3     0.900000E-01   1.00800           0
     12786 MEMB     93       DOPC     H18S     HAL3     0.900000E-01   1.00800           0
     12787 MEMB     93       DOPC     H18T     HAL3     0.900000E-01   1.00800           0
     12788 MEMB     93       DOPC     C33      CTL2    -0.180000       12.0110           0
     12789 MEMB     93       DOPC     H3X      HAL2     0.900000E-01   1.00800           0
     12790 MEMB     93       DOPC     H3Y      HAL2     0.900000E-01   1.00800           0
     12791 MEMB     93       DOPC     C34      CTL2    -0.180000       12.0110           0
     12792 MEMB     93       DOPC     H4X      HAL2     0.900000E-01   1.00800           0
     12793 MEMB     93       DOPC     H4Y      HAL2     0.900000E-01   1.00800           0
     12794 MEMB     93       DOPC     C35      CTL2    -0.180000       12.0110           0
     12795 MEMB     93       DOPC     H5X      HAL2     0.900000E-01   1.00800           0
     12796 MEMB     93       DOPC     H5Y      HAL2     0.900000E-01   1.00800           0
     12797 MEMB     93       DOPC     C36      CTL2    -0.180000       12.0110           0
     12798 MEMB     93       DOPC     H6X      HAL2     0.900000E-01   1.00800           0
     12799 MEMB     93       DOPC     H6Y      HAL2     0.900000E-01   1.00800           0
     12800 MEMB     93       DOPC     C37      CTL2    -0.180000       12.0110           0
     12801 MEMB     93       DOPC     H7X      HAL2     0.900000E-01   1.00800           0
     12802 MEMB     93       DOPC     H7Y      HAL2     0.900000E-01   1.00800           0
     12803 MEMB     93       DOPC     C38      CTL2    -0.180000       12.0110           0
     12804 MEMB     93       DOPC     H8X      HAL2     0.900000E-01   1.00800           0
     12805 MEMB     93       DOPC     H8Y      HAL2     0.900000E-01   1.00800           0
     12806 MEMB     93       DOPC     C39      CEL1    -0.150000       12.0110           0
     12807 MEMB     93       DOPC     H9X      HEL1     0.150000       1.00800           0
     12808 MEMB     93       DOPC     C310     CEL1    -0.150000       12.0110           0
     12809 MEMB     93       DOPC     H10X     HEL1     0.150000       1.00800           0
     12810 MEMB     93       DOPC     C311     CTL2    -0.180000       12.0110           0
     12811 MEMB     93       DOPC     H11X     HAL2     0.900000E-01   1.00800           0
     12812 MEMB     93       DOPC     H11Y     HAL2     0.900000E-01   1.00800           0
     12813 MEMB     93       DOPC     C312     CTL2    -0.180000       12.0110           0
     12814 MEMB     93       DOPC     H12X     HAL2     0.900000E-01   1.00800           0
     12815 MEMB     93       DOPC     H12Y     HAL2     0.900000E-01   1.00800           0
     12816 MEMB     93       DOPC     C313     CTL2    -0.180000       12.0110           0
     12817 MEMB     93       DOPC     H13X     HAL2     0.900000E-01   1.00800           0
     12818 MEMB     93       DOPC     H13Y     HAL2     0.900000E-01   1.00800           0
     12819 MEMB     93       DOPC     C314     CTL2    -0.180000       12.0110           0
     12820 MEMB     93       DOPC     H14X     HAL2     0.900000E-01   1.00800           0
     12821 MEMB     93       DOPC     H14Y     HAL2     0.900000E-01   1.00800           0
     12822 MEMB     93       DOPC     C315     CTL2    -0.180000       12.0110           0
     12823 MEMB     93       DOPC     H15X     HAL2     0.900000E-01   1.00800           0
     12824 MEMB     93       DOPC     H15Y     HAL2     0.900000E-01   1.00800           0
     12825 MEMB     93       DOPC     C316     CTL2    -0.180000       12.0110           0
     12826 MEMB     93       DOPC     H16X     HAL2     0.900000E-01   1.00800           0
     12827 MEMB     93       DOPC     H16Y     HAL2     0.900000E-01   1.00800           0
     12828 MEMB     93       DOPC     C317     CTL2    -0.180000       12.0110           0
     12829 MEMB     93       DOPC     H17X     HAL2     0.900000E-01   1.00800           0
     12830 MEMB     93       DOPC     H17Y     HAL2     0.900000E-01   1.00800           0
     12831 MEMB     93       DOPC     C318     CTL3    -0.270000       12.0110           0
     12832 MEMB     93       DOPC     H18X     HAL3     0.900000E-01   1.00800           0
     12833 MEMB     93       DOPC     H18Y     HAL3     0.900000E-01   1.00800           0
     12834 MEMB     93       DOPC     H18Z     HAL3     0.900000E-01   1.00800           0
     12835 MEMB     94       DOPC     N        NTL     -0.600000       14.0070           0
     12836 MEMB     94       DOPC     C12      CTL2    -0.100000       12.0110           0
     12837 MEMB     94       DOPC     H12A     HL       0.250000       1.00800           0
     12838 MEMB     94       DOPC     H12B     HL       0.250000       1.00800           0
     12839 MEMB     94       DOPC     C13      CTL5    -0.350000       12.0110           0
     12840 MEMB     94       DOPC     H13A     HL       0.250000       1.00800           0
     12841 MEMB     94       DOPC     H13B     HL       0.250000       1.00800           0
     12842 MEMB     94       DOPC     H13C     HL       0.250000       1.00800           0
     12843 MEMB     94       DOPC     C14      CTL5    -0.350000       12.0110           0
     12844 MEMB     94       DOPC     H14A     HL       0.250000       1.00800           0
     12845 MEMB     94       DOPC     H14B     HL       0.250000       1.00800           0
     12846 MEMB     94       DOPC     H14C     HL       0.250000       1.00800           0
     12847 MEMB     94       DOPC     C15      CTL5    -0.350000       12.0110           0
     12848 MEMB     94       DOPC     H15A     HL       0.250000       1.00800           0
     12849 MEMB     94       DOPC     H15B     HL       0.250000       1.00800           0
     12850 MEMB     94       DOPC     H15C     HL       0.250000       1.00800           0
     12851 MEMB     94       DOPC     C11      CTL2    -0.800000E-01   12.0110           0
     12852 MEMB     94       DOPC     H11A     HAL2     0.900000E-01   1.00800           0
     12853 MEMB     94       DOPC     H11B     HAL2     0.900000E-01   1.00800           0
     12854 MEMB     94       DOPC     P        PL        1.50000       30.9740           0
     12855 MEMB     94       DOPC     O13      O2L     -0.780000       15.9994           0
     12856 MEMB     94       DOPC     O14      O2L     -0.780000       15.9994           0
     12857 MEMB     94       DOPC     O12      OSLP    -0.570000       15.9994           0
     12858 MEMB     94       DOPC     O11      OSLP    -0.570000       15.9994           0
     12859 MEMB     94       DOPC     C1       CTL2    -0.800000E-01   12.0110           0
     12860 MEMB     94       DOPC     HA       HAL2     0.900000E-01   1.00800           0
     12861 MEMB     94       DOPC     HB       HAL2     0.900000E-01   1.00800           0
     12862 MEMB     94       DOPC     C2       CTL1     0.170000       12.0110           0
     12863 MEMB     94       DOPC     HS       HAL1     0.900000E-01   1.00800           0
     12864 MEMB     94       DOPC     O21      OSL     -0.490000       15.9994           0
     12865 MEMB     94       DOPC     C21      CL       0.900000       12.0110           0
     12866 MEMB     94       DOPC     O22      OBL     -0.630000       15.9994           0
     12867 MEMB     94       DOPC     C22      CTL2    -0.220000       12.0110           0
     12868 MEMB     94       DOPC     H2R      HAL2     0.900000E-01   1.00800           0
     12869 MEMB     94       DOPC     H2S      HAL2     0.900000E-01   1.00800           0
     12870 MEMB     94       DOPC     C3       CTL2     0.800000E-01   12.0110           0
     12871 MEMB     94       DOPC     HX       HAL2     0.900000E-01   1.00800           0
     12872 MEMB     94       DOPC     HY       HAL2     0.900000E-01   1.00800           0
     12873 MEMB     94       DOPC     O31      OSL     -0.490000       15.9994           0
     12874 MEMB     94       DOPC     C31      CL       0.900000       12.0110           0
     12875 MEMB     94       DOPC     O32      OBL     -0.630000       15.9994           0
     12876 MEMB     94       DOPC     C32      CTL2    -0.220000       12.0110           0
     12877 MEMB     94       DOPC     H2X      HAL2     0.900000E-01   1.00800           0
     12878 MEMB     94       DOPC     H2Y      HAL2     0.900000E-01   1.00800           0
     12879 MEMB     94       DOPC     C23      CTL2    -0.180000       12.0110           0
     12880 MEMB     94       DOPC     H3R      HAL2     0.900000E-01   1.00800           0
     12881 MEMB     94       DOPC     H3S      HAL2     0.900000E-01   1.00800           0
     12882 MEMB     94       DOPC     C24      CTL2    -0.180000       12.0110           0
     12883 MEMB     94       DOPC     H4R      HAL2     0.900000E-01   1.00800           0
     12884 MEMB     94       DOPC     H4S      HAL2     0.900000E-01   1.00800           0
     12885 MEMB     94       DOPC     C25      CTL2    -0.180000       12.0110           0
     12886 MEMB     94       DOPC     H5R      HAL2     0.900000E-01   1.00800           0
     12887 MEMB     94       DOPC     H5S      HAL2     0.900000E-01   1.00800           0
     12888 MEMB     94       DOPC     C26      CTL2    -0.180000       12.0110           0
     12889 MEMB     94       DOPC     H6R      HAL2     0.900000E-01   1.00800           0
     12890 MEMB     94       DOPC     H6S      HAL2     0.900000E-01   1.00800           0
     12891 MEMB     94       DOPC     C27      CTL2    -0.180000       12.0110           0
     12892 MEMB     94       DOPC     H7R      HAL2     0.900000E-01   1.00800           0
     12893 MEMB     94       DOPC     H7S      HAL2     0.900000E-01   1.00800           0
     12894 MEMB     94       DOPC     C28      CTL2    -0.180000       12.0110           0
     12895 MEMB     94       DOPC     H8R      HAL2     0.900000E-01   1.00800           0
     12896 MEMB     94       DOPC     H8S      HAL2     0.900000E-01   1.00800           0
     12897 MEMB     94       DOPC     C29      CEL1    -0.150000       12.0110           0
     12898 MEMB     94       DOPC     H9R      HEL1     0.150000       1.00800           0
     12899 MEMB     94       DOPC     C210     CEL1    -0.150000       12.0110           0
     12900 MEMB     94       DOPC     H10R     HEL1     0.150000       1.00800           0
     12901 MEMB     94       DOPC     C211     CTL2    -0.180000       12.0110           0
     12902 MEMB     94       DOPC     H11R     HAL2     0.900000E-01   1.00800           0
     12903 MEMB     94       DOPC     H11S     HAL2     0.900000E-01   1.00800           0
     12904 MEMB     94       DOPC     C212     CTL2    -0.180000       12.0110           0
     12905 MEMB     94       DOPC     H12R     HAL2     0.900000E-01   1.00800           0
     12906 MEMB     94       DOPC     H12S     HAL2     0.900000E-01   1.00800           0
     12907 MEMB     94       DOPC     C213     CTL2    -0.180000       12.0110           0
     12908 MEMB     94       DOPC     H13R     HAL2     0.900000E-01   1.00800           0
     12909 MEMB     94       DOPC     H13S     HAL2     0.900000E-01   1.00800           0
     12910 MEMB     94       DOPC     C214     CTL2    -0.180000       12.0110           0
     12911 MEMB     94       DOPC     H14R     HAL2     0.900000E-01   1.00800           0
     12912 MEMB     94       DOPC     H14S     HAL2     0.900000E-01   1.00800           0
     12913 MEMB     94       DOPC     C215     CTL2    -0.180000       12.0110           0
     12914 MEMB     94       DOPC     H15R     HAL2     0.900000E-01   1.00800           0
     12915 MEMB     94       DOPC     H15S     HAL2     0.900000E-01   1.00800           0
     12916 MEMB     94       DOPC     C216     CTL2    -0.180000       12.0110           0
     12917 MEMB     94       DOPC     H16R     HAL2     0.900000E-01   1.00800           0
     12918 MEMB     94       DOPC     H16S     HAL2     0.900000E-01   1.00800           0
     12919 MEMB     94       DOPC     C217     CTL2    -0.180000       12.0110           0
     12920 MEMB     94       DOPC     H17R     HAL2     0.900000E-01   1.00800           0
     12921 MEMB     94       DOPC     H17S     HAL2     0.900000E-01   1.00800           0
     12922 MEMB     94       DOPC     C218     CTL3    -0.270000       12.0110           0
     12923 MEMB     94       DOPC     H18R     HAL3     0.900000E-01   1.00800           0
     12924 MEMB     94       DOPC     H18S     HAL3     0.900000E-01   1.00800           0
     12925 MEMB     94       DOPC     H18T     HAL3     0.900000E-01   1.00800           0
     12926 MEMB     94       DOPC     C33      CTL2    -0.180000       12.0110           0
     12927 MEMB     94       DOPC     H3X      HAL2     0.900000E-01   1.00800           0
     12928 MEMB     94       DOPC     H3Y      HAL2     0.900000E-01   1.00800           0
     12929 MEMB     94       DOPC     C34      CTL2    -0.180000       12.0110           0
     12930 MEMB     94       DOPC     H4X      HAL2     0.900000E-01   1.00800           0
     12931 MEMB     94       DOPC     H4Y      HAL2     0.900000E-01   1.00800           0
     12932 MEMB     94       DOPC     C35      CTL2    -0.180000       12.0110           0
     12933 MEMB     94       DOPC     H5X      HAL2     0.900000E-01   1.00800           0
     12934 MEMB     94       DOPC     H5Y      HAL2     0.900000E-01   1.00800           0
     12935 MEMB     94       DOPC     C36      CTL2    -0.180000       12.0110           0
     12936 MEMB     94       DOPC     H6X      HAL2     0.900000E-01   1.00800           0
     12937 MEMB     94       DOPC     H6Y      HAL2     0.900000E-01   1.00800           0
     12938 MEMB     94       DOPC     C37      CTL2    -0.180000       12.0110           0
     12939 MEMB     94       DOPC     H7X      HAL2     0.900000E-01   1.00800           0
     12940 MEMB     94       DOPC     H7Y      HAL2     0.900000E-01   1.00800           0
     12941 MEMB     94       DOPC     C38      CTL2    -0.180000       12.0110           0
     12942 MEMB     94       DOPC     H8X      HAL2     0.900000E-01   1.00800           0
     12943 MEMB     94       DOPC     H8Y      HAL2     0.900000E-01   1.00800           0
     12944 MEMB     94       DOPC     C39      CEL1    -0.150000       12.0110           0
     12945 MEMB     94       DOPC     H9X      HEL1     0.150000       1.00800           0
     12946 MEMB     94       DOPC     C310     CEL1    -0.150000       12.0110           0
     12947 MEMB     94       DOPC     H10X     HEL1     0.150000       1.00800           0
     12948 MEMB     94       DOPC     C311     CTL2    -0.180000       12.0110           0
     12949 MEMB     94       DOPC     H11X     HAL2     0.900000E-01   1.00800           0
     12950 MEMB     94       DOPC     H11Y     HAL2     0.900000E-01   1.00800           0
     12951 MEMB     94       DOPC     C312     CTL2    -0.180000       12.0110           0
     12952 MEMB     94       DOPC     H12X     HAL2     0.900000E-01   1.00800           0
     12953 MEMB     94       DOPC     H12Y     HAL2     0.900000E-01   1.00800           0
     12954 MEMB     94       DOPC     C313     CTL2    -0.180000       12.0110           0
     12955 MEMB     94       DOPC     H13X     HAL2     0.900000E-01   1.00800           0
     12956 MEMB     94       DOPC     H13Y     HAL2     0.900000E-01   1.00800           0
     12957 MEMB     94       DOPC     C314     CTL2    -0.180000       12.0110           0
     12958 MEMB     94       DOPC     H14X     HAL2     0.900000E-01   1.00800           0
     12959 MEMB     94       DOPC     H14Y     HAL2     0.900000E-01   1.00800           0
     12960 MEMB     94       DOPC     C315     CTL2    -0.180000       12.0110           0
     12961 MEMB     94       DOPC     H15X     HAL2     0.900000E-01   1.00800           0
     12962 MEMB     94       DOPC     H15Y     HAL2     0.900000E-01   1.00800           0
     12963 MEMB     94       DOPC     C316     CTL2    -0.180000       12.0110           0
     12964 MEMB     94       DOPC     H16X     HAL2     0.900000E-01   1.00800           0
     12965 MEMB     94       DOPC     H16Y     HAL2     0.900000E-01   1.00800           0
     12966 MEMB     94       DOPC     C317     CTL2    -0.180000       12.0110           0
     12967 MEMB     94       DOPC     H17X     HAL2     0.900000E-01   1.00800           0
     12968 MEMB     94       DOPC     H17Y     HAL2     0.900000E-01   1.00800           0
     12969 MEMB     94       DOPC     C318     CTL3    -0.270000       12.0110           0
     12970 MEMB     94       DOPC     H18X     HAL3     0.900000E-01   1.00800           0
     12971 MEMB     94       DOPC     H18Y     HAL3     0.900000E-01   1.00800           0
     12972 MEMB     94       DOPC     H18Z     HAL3     0.900000E-01   1.00800           0
     12973 MEMB     95       DOPC     N        NTL     -0.600000       14.0070           0
     12974 MEMB     95       DOPC     C12      CTL2    -0.100000       12.0110           0
     12975 MEMB     95       DOPC     H12A     HL       0.250000       1.00800           0
     12976 MEMB     95       DOPC     H12B     HL       0.250000       1.00800           0
     12977 MEMB     95       DOPC     C13      CTL5    -0.350000       12.0110           0
     12978 MEMB     95       DOPC     H13A     HL       0.250000       1.00800           0
     12979 MEMB     95       DOPC     H13B     HL       0.250000       1.00800           0
     12980 MEMB     95       DOPC     H13C     HL       0.250000       1.00800           0
     12981 MEMB     95       DOPC     C14      CTL5    -0.350000       12.0110           0
     12982 MEMB     95       DOPC     H14A     HL       0.250000       1.00800           0
     12983 MEMB     95       DOPC     H14B     HL       0.250000       1.00800           0
     12984 MEMB     95       DOPC     H14C     HL       0.250000       1.00800           0
     12985 MEMB     95       DOPC     C15      CTL5    -0.350000       12.0110           0
     12986 MEMB     95       DOPC     H15A     HL       0.250000       1.00800           0
     12987 MEMB     95       DOPC     H15B     HL       0.250000       1.00800           0
     12988 MEMB     95       DOPC     H15C     HL       0.250000       1.00800           0
     12989 MEMB     95       DOPC     C11      CTL2    -0.800000E-01   12.0110           0
     12990 MEMB     95       DOPC     H11A     HAL2     0.900000E-01   1.00800           0
     12991 MEMB     95       DOPC     H11B     HAL2     0.900000E-01   1.00800           0
     12992 MEMB     95       DOPC     P        PL        1.50000       30.9740           0
     12993 MEMB     95       DOPC     O13      O2L     -0.780000       15.9994           0
     12994 MEMB     95       DOPC     O14      O2L     -0.780000       15.9994           0
     12995 MEMB     95       DOPC     O12      OSLP    -0.570000       15.9994           0
     12996 MEMB     95       DOPC     O11      OSLP    -0.570000       15.9994           0
     12997 MEMB     95       DOPC     C1       CTL2    -0.800000E-01   12.0110           0
     12998 MEMB     95       DOPC     HA       HAL2     0.900000E-01   1.00800           0
     12999 MEMB     95       DOPC     HB       HAL2     0.900000E-01   1.00800           0
     13000 MEMB     95       DOPC     C2       CTL1     0.170000       12.0110           0
     13001 MEMB     95       DOPC     HS       HAL1     0.900000E-01   1.00800           0
     13002 MEMB     95       DOPC     O21      OSL     -0.490000       15.9994           0
     13003 MEMB     95       DOPC     C21      CL       0.900000       12.0110           0
     13004 MEMB     95       DOPC     O22      OBL     -0.630000       15.9994           0
     13005 MEMB     95       DOPC     C22      CTL2    -0.220000       12.0110           0
     13006 MEMB     95       DOPC     H2R      HAL2     0.900000E-01   1.00800           0
     13007 MEMB     95       DOPC     H2S      HAL2     0.900000E-01   1.00800           0
     13008 MEMB     95       DOPC     C3       CTL2     0.800000E-01   12.0110           0
     13009 MEMB     95       DOPC     HX       HAL2     0.900000E-01   1.00800           0
     13010 MEMB     95       DOPC     HY       HAL2     0.900000E-01   1.00800           0
     13011 MEMB     95       DOPC     O31      OSL     -0.490000       15.9994           0
     13012 MEMB     95       DOPC     C31      CL       0.900000       12.0110           0
     13013 MEMB     95       DOPC     O32      OBL     -0.630000       15.9994           0
     13014 MEMB     95       DOPC     C32      CTL2    -0.220000       12.0110           0
     13015 MEMB     95       DOPC     H2X      HAL2     0.900000E-01   1.00800           0
     13016 MEMB     95       DOPC     H2Y      HAL2     0.900000E-01   1.00800           0
     13017 MEMB     95       DOPC     C23      CTL2    -0.180000       12.0110           0
     13018 MEMB     95       DOPC     H3R      HAL2     0.900000E-01   1.00800           0
     13019 MEMB     95       DOPC     H3S      HAL2     0.900000E-01   1.00800           0
     13020 MEMB     95       DOPC     C24      CTL2    -0.180000       12.0110           0
     13021 MEMB     95       DOPC     H4R      HAL2     0.900000E-01   1.00800           0
     13022 MEMB     95       DOPC     H4S      HAL2     0.900000E-01   1.00800           0
     13023 MEMB     95       DOPC     C25      CTL2    -0.180000       12.0110           0
     13024 MEMB     95       DOPC     H5R      HAL2     0.900000E-01   1.00800           0
     13025 MEMB     95       DOPC     H5S      HAL2     0.900000E-01   1.00800           0
     13026 MEMB     95       DOPC     C26      CTL2    -0.180000       12.0110           0
     13027 MEMB     95       DOPC     H6R      HAL2     0.900000E-01   1.00800           0
     13028 MEMB     95       DOPC     H6S      HAL2     0.900000E-01   1.00800           0
     13029 MEMB     95       DOPC     C27      CTL2    -0.180000       12.0110           0
     13030 MEMB     95       DOPC     H7R      HAL2     0.900000E-01   1.00800           0
     13031 MEMB     95       DOPC     H7S      HAL2     0.900000E-01   1.00800           0
     13032 MEMB     95       DOPC     C28      CTL2    -0.180000       12.0110           0
     13033 MEMB     95       DOPC     H8R      HAL2     0.900000E-01   1.00800           0
     13034 MEMB     95       DOPC     H8S      HAL2     0.900000E-01   1.00800           0
     13035 MEMB     95       DOPC     C29      CEL1    -0.150000       12.0110           0
     13036 MEMB     95       DOPC     H9R      HEL1     0.150000       1.00800           0
     13037 MEMB     95       DOPC     C210     CEL1    -0.150000       12.0110           0
     13038 MEMB     95       DOPC     H10R     HEL1     0.150000       1.00800           0
     13039 MEMB     95       DOPC     C211     CTL2    -0.180000       12.0110           0
     13040 MEMB     95       DOPC     H11R     HAL2     0.900000E-01   1.00800           0
     13041 MEMB     95       DOPC     H11S     HAL2     0.900000E-01   1.00800           0
     13042 MEMB     95       DOPC     C212     CTL2    -0.180000       12.0110           0
     13043 MEMB     95       DOPC     H12R     HAL2     0.900000E-01   1.00800           0
     13044 MEMB     95       DOPC     H12S     HAL2     0.900000E-01   1.00800           0
     13045 MEMB     95       DOPC     C213     CTL2    -0.180000       12.0110           0
     13046 MEMB     95       DOPC     H13R     HAL2     0.900000E-01   1.00800           0
     13047 MEMB     95       DOPC     H13S     HAL2     0.900000E-01   1.00800           0
     13048 MEMB     95       DOPC     C214     CTL2    -0.180000       12.0110           0
     13049 MEMB     95       DOPC     H14R     HAL2     0.900000E-01   1.00800           0
     13050 MEMB     95       DOPC     H14S     HAL2     0.900000E-01   1.00800           0
     13051 MEMB     95       DOPC     C215     CTL2    -0.180000       12.0110           0
     13052 MEMB     95       DOPC     H15R     HAL2     0.900000E-01   1.00800           0
     13053 MEMB     95       DOPC     H15S     HAL2     0.900000E-01   1.00800           0
     13054 MEMB     95       DOPC     C216     CTL2    -0.180000       12.0110           0
     13055 MEMB     95       DOPC     H16R     HAL2     0.900000E-01   1.00800           0
     13056 MEMB     95       DOPC     H16S     HAL2     0.900000E-01   1.00800           0
     13057 MEMB     95       DOPC     C217     CTL2    -0.180000       12.0110           0
     13058 MEMB     95       DOPC     H17R     HAL2     0.900000E-01   1.00800           0
     13059 MEMB     95       DOPC     H17S     HAL2     0.900000E-01   1.00800           0
     13060 MEMB     95       DOPC     C218     CTL3    -0.270000       12.0110           0
     13061 MEMB     95       DOPC     H18R     HAL3     0.900000E-01   1.00800           0
     13062 MEMB     95       DOPC     H18S     HAL3     0.900000E-01   1.00800           0
     13063 MEMB     95       DOPC     H18T     HAL3     0.900000E-01   1.00800           0
     13064 MEMB     95       DOPC     C33      CTL2    -0.180000       12.0110           0
     13065 MEMB     95       DOPC     H3X      HAL2     0.900000E-01   1.00800           0
     13066 MEMB     95       DOPC     H3Y      HAL2     0.900000E-01   1.00800           0
     13067 MEMB     95       DOPC     C34      CTL2    -0.180000       12.0110           0
     13068 MEMB     95       DOPC     H4X      HAL2     0.900000E-01   1.00800           0
     13069 MEMB     95       DOPC     H4Y      HAL2     0.900000E-01   1.00800           0
     13070 MEMB     95       DOPC     C35      CTL2    -0.180000       12.0110           0
     13071 MEMB     95       DOPC     H5X      HAL2     0.900000E-01   1.00800           0
     13072 MEMB     95       DOPC     H5Y      HAL2     0.900000E-01   1.00800           0
     13073 MEMB     95       DOPC     C36      CTL2    -0.180000       12.0110           0
     13074 MEMB     95       DOPC     H6X      HAL2     0.900000E-01   1.00800           0
     13075 MEMB     95       DOPC     H6Y      HAL2     0.900000E-01   1.00800           0
     13076 MEMB     95       DOPC     C37      CTL2    -0.180000       12.0110           0
     13077 MEMB     95       DOPC     H7X      HAL2     0.900000E-01   1.00800           0
     13078 MEMB     95       DOPC     H7Y      HAL2     0.900000E-01   1.00800           0
     13079 MEMB     95       DOPC     C38      CTL2    -0.180000       12.0110           0
     13080 MEMB     95       DOPC     H8X      HAL2     0.900000E-01   1.00800           0
     13081 MEMB     95       DOPC     H8Y      HAL2     0.900000E-01   1.00800           0
     13082 MEMB     95       DOPC     C39      CEL1    -0.150000       12.0110           0
     13083 MEMB     95       DOPC     H9X      HEL1     0.150000       1.00800           0
     13084 MEMB     95       DOPC     C310     CEL1    -0.150000       12.0110           0
     13085 MEMB     95       DOPC     H10X     HEL1     0.150000       1.00800           0
     13086 MEMB     95       DOPC     C311     CTL2    -0.180000       12.0110           0
     13087 MEMB     95       DOPC     H11X     HAL2     0.900000E-01   1.00800           0
     13088 MEMB     95       DOPC     H11Y     HAL2     0.900000E-01   1.00800           0
     13089 MEMB     95       DOPC     C312     CTL2    -0.180000       12.0110           0
     13090 MEMB     95       DOPC     H12X     HAL2     0.900000E-01   1.00800           0
     13091 MEMB     95       DOPC     H12Y     HAL2     0.900000E-01   1.00800           0
     13092 MEMB     95       DOPC     C313     CTL2    -0.180000       12.0110           0
     13093 MEMB     95       DOPC     H13X     HAL2     0.900000E-01   1.00800           0
     13094 MEMB     95       DOPC     H13Y     HAL2     0.900000E-01   1.00800           0
     13095 MEMB     95       DOPC     C314     CTL2    -0.180000       12.0110           0
     13096 MEMB     95       DOPC     H14X     HAL2     0.900000E-01   1.00800           0
     13097 MEMB     95       DOPC     H14Y     HAL2     0.900000E-01   1.00800           0
     13098 MEMB     95       DOPC     C315     CTL2    -0.180000       12.0110           0
     13099 MEMB     95       DOPC     H15X     HAL2     0.900000E-01   1.00800           0
     13100 MEMB     95       DOPC     H15Y     HAL2     0.900000E-01   1.00800           0
     13101 MEMB     95       DOPC     C316     CTL2    -0.180000       12.0110           0
     13102 MEMB     95       DOPC     H16X     HAL2     0.900000E-01   1.00800           0
     13103 MEMB     95       DOPC     H16Y     HAL2     0.900000E-01   1.00800           0
     13104 MEMB     95       DOPC     C317     CTL2    -0.180000       12.0110           0
     13105 MEMB     95       DOPC     H17X     HAL2     0.900000E-01   1.00800           0
     13106 MEMB     95       DOPC     H17Y     HAL2     0.900000E-01   1.00800           0
     13107 MEMB     95       DOPC     C318     CTL3    -0.270000       12.0110           0
     13108 MEMB     95       DOPC     H18X     HAL3     0.900000E-01   1.00800           0
     13109 MEMB     95       DOPC     H18Y     HAL3     0.900000E-01   1.00800           0
     13110 MEMB     95       DOPC     H18Z     HAL3     0.900000E-01   1.00800           0
     13111 MEMB     96       DOPC     N        NTL     -0.600000       14.0070           0
     13112 MEMB     96       DOPC     C12      CTL2    -0.100000       12.0110           0
     13113 MEMB     96       DOPC     H12A     HL       0.250000       1.00800           0
     13114 MEMB     96       DOPC     H12B     HL       0.250000       1.00800           0
     13115 MEMB     96       DOPC     C13      CTL5    -0.350000       12.0110           0
     13116 MEMB     96       DOPC     H13A     HL       0.250000       1.00800           0
     13117 MEMB     96       DOPC     H13B     HL       0.250000       1.00800           0
     13118 MEMB     96       DOPC     H13C     HL       0.250000       1.00800           0
     13119 MEMB     96       DOPC     C14      CTL5    -0.350000       12.0110           0
     13120 MEMB     96       DOPC     H14A     HL       0.250000       1.00800           0
     13121 MEMB     96       DOPC     H14B     HL       0.250000       1.00800           0
     13122 MEMB     96       DOPC     H14C     HL       0.250000       1.00800           0
     13123 MEMB     96       DOPC     C15      CTL5    -0.350000       12.0110           0
     13124 MEMB     96       DOPC     H15A     HL       0.250000       1.00800           0
     13125 MEMB     96       DOPC     H15B     HL       0.250000       1.00800           0
     13126 MEMB     96       DOPC     H15C     HL       0.250000       1.00800           0
     13127 MEMB     96       DOPC     C11      CTL2    -0.800000E-01   12.0110           0
     13128 MEMB     96       DOPC     H11A     HAL2     0.900000E-01   1.00800           0
     13129 MEMB     96       DOPC     H11B     HAL2     0.900000E-01   1.00800           0
     13130 MEMB     96       DOPC     P        PL        1.50000       30.9740           0
     13131 MEMB     96       DOPC     O13      O2L     -0.780000       15.9994           0
     13132 MEMB     96       DOPC     O14      O2L     -0.780000       15.9994           0
     13133 MEMB     96       DOPC     O12      OSLP    -0.570000       15.9994           0
     13134 MEMB     96       DOPC     O11      OSLP    -0.570000       15.9994           0
     13135 MEMB     96       DOPC     C1       CTL2    -0.800000E-01   12.0110           0
     13136 MEMB     96       DOPC     HA       HAL2     0.900000E-01   1.00800           0
     13137 MEMB     96       DOPC     HB       HAL2     0.900000E-01   1.00800           0
     13138 MEMB     96       DOPC     C2       CTL1     0.170000       12.0110           0
     13139 MEMB     96       DOPC     HS       HAL1     0.900000E-01   1.00800           0
     13140 MEMB     96       DOPC     O21      OSL     -0.490000       15.9994           0
     13141 MEMB     96       DOPC     C21      CL       0.900000       12.0110           0
     13142 MEMB     96       DOPC     O22      OBL     -0.630000       15.9994           0
     13143 MEMB     96       DOPC     C22      CTL2    -0.220000       12.0110           0
     13144 MEMB     96       DOPC     H2R      HAL2     0.900000E-01   1.00800           0
     13145 MEMB     96       DOPC     H2S      HAL2     0.900000E-01   1.00800           0
     13146 MEMB     96       DOPC     C3       CTL2     0.800000E-01   12.0110           0
     13147 MEMB     96       DOPC     HX       HAL2     0.900000E-01   1.00800           0
     13148 MEMB     96       DOPC     HY       HAL2     0.900000E-01   1.00800           0
     13149 MEMB     96       DOPC     O31      OSL     -0.490000       15.9994           0
     13150 MEMB     96       DOPC     C31      CL       0.900000       12.0110           0
     13151 MEMB     96       DOPC     O32      OBL     -0.630000       15.9994           0
     13152 MEMB     96       DOPC     C32      CTL2    -0.220000       12.0110           0
     13153 MEMB     96       DOPC     H2X      HAL2     0.900000E-01   1.00800           0
     13154 MEMB     96       DOPC     H2Y      HAL2     0.900000E-01   1.00800           0
     13155 MEMB     96       DOPC     C23      CTL2    -0.180000       12.0110           0
     13156 MEMB     96       DOPC     H3R      HAL2     0.900000E-01   1.00800           0
     13157 MEMB     96       DOPC     H3S      HAL2     0.900000E-01   1.00800           0
     13158 MEMB     96       DOPC     C24      CTL2    -0.180000       12.0110           0
     13159 MEMB     96       DOPC     H4R      HAL2     0.900000E-01   1.00800           0
     13160 MEMB     96       DOPC     H4S      HAL2     0.900000E-01   1.00800           0
     13161 MEMB     96       DOPC     C25      CTL2    -0.180000       12.0110           0
     13162 MEMB     96       DOPC     H5R      HAL2     0.900000E-01   1.00800           0
     13163 MEMB     96       DOPC     H5S      HAL2     0.900000E-01   1.00800           0
     13164 MEMB     96       DOPC     C26      CTL2    -0.180000       12.0110           0
     13165 MEMB     96       DOPC     H6R      HAL2     0.900000E-01   1.00800           0
     13166 MEMB     96       DOPC     H6S      HAL2     0.900000E-01   1.00800           0
     13167 MEMB     96       DOPC     C27      CTL2    -0.180000       12.0110           0
     13168 MEMB     96       DOPC     H7R      HAL2     0.900000E-01   1.00800           0
     13169 MEMB     96       DOPC     H7S      HAL2     0.900000E-01   1.00800           0
     13170 MEMB     96       DOPC     C28      CTL2    -0.180000       12.0110           0
     13171 MEMB     96       DOPC     H8R      HAL2     0.900000E-01   1.00800           0
     13172 MEMB     96       DOPC     H8S      HAL2     0.900000E-01   1.00800           0
     13173 MEMB     96       DOPC     C29      CEL1    -0.150000       12.0110           0
     13174 MEMB     96       DOPC     H9R      HEL1     0.150000       1.00800           0
     13175 MEMB     96       DOPC     C210     CEL1    -0.150000       12.0110           0
     13176 MEMB     96       DOPC     H10R     HEL1     0.150000       1.00800           0
     13177 MEMB     96       DOPC     C211     CTL2    -0.180000       12.0110           0
     13178 MEMB     96       DOPC     H11R     HAL2     0.900000E-01   1.00800           0
     13179 MEMB     96       DOPC     H11S     HAL2     0.900000E-01   1.00800           0
     13180 MEMB     96       DOPC     C212     CTL2    -0.180000       12.0110           0
     13181 MEMB     96       DOPC     H12R     HAL2     0.900000E-01   1.00800           0
     13182 MEMB     96       DOPC     H12S     HAL2     0.900000E-01   1.00800           0
     13183 MEMB     96       DOPC     C213     CTL2    -0.180000       12.0110           0
     13184 MEMB     96       DOPC     H13R     HAL2     0.900000E-01   1.00800           0
     13185 MEMB     96       DOPC     H13S     HAL2     0.900000E-01   1.00800           0
     13186 MEMB     96       DOPC     C214     CTL2    -0.180000       12.0110           0
     13187 MEMB     96       DOPC     H14R     HAL2     0.900000E-01   1.00800           0
     13188 MEMB     96       DOPC     H14S     HAL2     0.900000E-01   1.00800           0
     13189 MEMB     96       DOPC     C215     CTL2    -0.180000       12.0110           0
     13190 MEMB     96       DOPC     H15R     HAL2     0.900000E-01   1.00800           0
     13191 MEMB     96       DOPC     H15S     HAL2     0.900000E-01   1.00800           0
     13192 MEMB     96       DOPC     C216     CTL2    -0.180000       12.0110           0
     13193 MEMB     96       DOPC     H16R     HAL2     0.900000E-01   1.00800           0
     13194 MEMB     96       DOPC     H16S     HAL2     0.900000E-01   1.00800           0
     13195 MEMB     96       DOPC     C217     CTL2    -0.180000       12.0110           0
     13196 MEMB     96       DOPC     H17R     HAL2     0.900000E-01   1.00800           0
     13197 MEMB     96       DOPC     H17S     HAL2     0.900000E-01   1.00800           0
     13198 MEMB     96       DOPC     C218     CTL3    -0.270000       12.0110           0
     13199 MEMB     96       DOPC     H18R     HAL3     0.900000E-01   1.00800           0
     13200 MEMB     96       DOPC     H18S     HAL3     0.900000E-01   1.00800           0
     13201 MEMB     96       DOPC     H18T     HAL3     0.900000E-01   1.00800           0
     13202 MEMB     96       DOPC     C33      CTL2    -0.180000       12.0110           0
     13203 MEMB     96       DOPC     H3X      HAL2     0.900000E-01   1.00800           0
     13204 MEMB     96       DOPC     H3Y      HAL2     0.900000E-01   1.00800           0
     13205 MEMB     96       DOPC     C34      CTL2    -0.180000       12.0110           0
     13206 MEMB     96       DOPC     H4X      HAL2     0.900000E-01   1.00800           0
     13207 MEMB     96       DOPC     H4Y      HAL2     0.900000E-01   1.00800           0
     13208 MEMB     96       DOPC     C35      CTL2    -0.180000       12.0110           0
     13209 MEMB     96       DOPC     H5X      HAL2     0.900000E-01   1.00800           0
     13210 MEMB     96       DOPC     H5Y      HAL2     0.900000E-01   1.00800           0
     13211 MEMB     96       DOPC     C36      CTL2    -0.180000       12.0110           0
     13212 MEMB     96       DOPC     H6X      HAL2     0.900000E-01   1.00800           0
     13213 MEMB     96       DOPC     H6Y      HAL2     0.900000E-01   1.00800           0
     13214 MEMB     96       DOPC     C37      CTL2    -0.180000       12.0110           0
     13215 MEMB     96       DOPC     H7X      HAL2     0.900000E-01   1.00800           0
     13216 MEMB     96       DOPC     H7Y      HAL2     0.900000E-01   1.00800           0
     13217 MEMB     96       DOPC     C38      CTL2    -0.180000       12.0110           0
     13218 MEMB     96       DOPC     H8X      HAL2     0.900000E-01   1.00800           0
     13219 MEMB     96       DOPC     H8Y      HAL2     0.900000E-01   1.00800           0
     13220 MEMB     96       DOPC     C39      CEL1    -0.150000       12.0110           0
     13221 MEMB     96       DOPC     H9X      HEL1     0.150000       1.00800           0
     13222 MEMB     96       DOPC     C310     CEL1    -0.150000       12.0110           0
     13223 MEMB     96       DOPC     H10X     HEL1     0.150000       1.00800           0
     13224 MEMB     96       DOPC     C311     CTL2    -0.180000       12.0110           0
     13225 MEMB     96       DOPC     H11X     HAL2     0.900000E-01   1.00800           0
     13226 MEMB     96       DOPC     H11Y     HAL2     0.900000E-01   1.00800           0
     13227 MEMB     96       DOPC     C312     CTL2    -0.180000       12.0110           0
     13228 MEMB     96       DOPC     H12X     HAL2     0.900000E-01   1.00800           0
     13229 MEMB     96       DOPC     H12Y     HAL2     0.900000E-01   1.00800           0
     13230 MEMB     96       DOPC     C313     CTL2    -0.180000       12.0110           0
     13231 MEMB     96       DOPC     H13X     HAL2     0.900000E-01   1.00800           0
     13232 MEMB     96       DOPC     H13Y     HAL2     0.900000E-01   1.00800           0
     13233 MEMB     96       DOPC     C314     CTL2    -0.180000       12.0110           0
     13234 MEMB     96       DOPC     H14X     HAL2     0.900000E-01   1.00800           0
     13235 MEMB     96       DOPC     H14Y     HAL2     0.900000E-01   1.00800           0
     13236 MEMB     96       DOPC     C315     CTL2    -0.180000       12.0110           0
     13237 MEMB     96       DOPC     H15X     HAL2     0.900000E-01   1.00800           0
     13238 MEMB     96       DOPC     H15Y     HAL2     0.900000E-01   1.00800           0
     13239 MEMB     96       DOPC     C316     CTL2    -0.180000       12.0110           0
     13240 MEMB     96       DOPC     H16X     HAL2     0.900000E-01   1.00800           0
     13241 MEMB     96       DOPC     H16Y     HAL2     0.900000E-01   1.00800           0
     13242 MEMB     96       DOPC     C317     CTL2    -0.180000       12.0110           0
     13243 MEMB     96       DOPC     H17X     HAL2     0.900000E-01   1.00800           0
     13244 MEMB     96       DOPC     H17Y     HAL2     0.900000E-01   1.00800           0
     13245 MEMB     96       DOPC     C318     CTL3    -0.270000       12.0110           0
     13246 MEMB     96       DOPC     H18X     HAL3     0.900000E-01   1.00800           0
     13247 MEMB     96       DOPC     H18Y     HAL3     0.900000E-01   1.00800           0
     13248 MEMB     96       DOPC     H18Z     HAL3     0.900000E-01   1.00800           0
     13249 MEMB     97       DOPC     N        NTL     -0.600000       14.0070           0
     13250 MEMB     97       DOPC     C12      CTL2    -0.100000       12.0110           0
     13251 MEMB     97       DOPC     H12A     HL       0.250000       1.00800           0
     13252 MEMB     97       DOPC     H12B     HL       0.250000       1.00800           0
     13253 MEMB     97       DOPC     C13      CTL5    -0.350000       12.0110           0
     13254 MEMB     97       DOPC     H13A     HL       0.250000       1.00800           0
     13255 MEMB     97       DOPC     H13B     HL       0.250000       1.00800           0
     13256 MEMB     97       DOPC     H13C     HL       0.250000       1.00800           0
     13257 MEMB     97       DOPC     C14      CTL5    -0.350000       12.0110           0
     13258 MEMB     97       DOPC     H14A     HL       0.250000       1.00800           0
     13259 MEMB     97       DOPC     H14B     HL       0.250000       1.00800           0
     13260 MEMB     97       DOPC     H14C     HL       0.250000       1.00800           0
     13261 MEMB     97       DOPC     C15      CTL5    -0.350000       12.0110           0
     13262 MEMB     97       DOPC     H15A     HL       0.250000       1.00800           0
     13263 MEMB     97       DOPC     H15B     HL       0.250000       1.00800           0
     13264 MEMB     97       DOPC     H15C     HL       0.250000       1.00800           0
     13265 MEMB     97       DOPC     C11      CTL2    -0.800000E-01   12.0110           0
     13266 MEMB     97       DOPC     H11A     HAL2     0.900000E-01   1.00800           0
     13267 MEMB     97       DOPC     H11B     HAL2     0.900000E-01   1.00800           0
     13268 MEMB     97       DOPC     P        PL        1.50000       30.9740           0
     13269 MEMB     97       DOPC     O13      O2L     -0.780000       15.9994           0
     13270 MEMB     97       DOPC     O14      O2L     -0.780000       15.9994           0
     13271 MEMB     97       DOPC     O12      OSLP    -0.570000       15.9994           0
     13272 MEMB     97       DOPC     O11      OSLP    -0.570000       15.9994           0
     13273 MEMB     97       DOPC     C1       CTL2    -0.800000E-01   12.0110           0
     13274 MEMB     97       DOPC     HA       HAL2     0.900000E-01   1.00800           0
     13275 MEMB     97       DOPC     HB       HAL2     0.900000E-01   1.00800           0
     13276 MEMB     97       DOPC     C2       CTL1     0.170000       12.0110           0
     13277 MEMB     97       DOPC     HS       HAL1     0.900000E-01   1.00800           0
     13278 MEMB     97       DOPC     O21      OSL     -0.490000       15.9994           0
     13279 MEMB     97       DOPC     C21      CL       0.900000       12.0110           0
     13280 MEMB     97       DOPC     O22      OBL     -0.630000       15.9994           0
     13281 MEMB     97       DOPC     C22      CTL2    -0.220000       12.0110           0
     13282 MEMB     97       DOPC     H2R      HAL2     0.900000E-01   1.00800           0
     13283 MEMB     97       DOPC     H2S      HAL2     0.900000E-01   1.00800           0
     13284 MEMB     97       DOPC     C3       CTL2     0.800000E-01   12.0110           0
     13285 MEMB     97       DOPC     HX       HAL2     0.900000E-01   1.00800           0
     13286 MEMB     97       DOPC     HY       HAL2     0.900000E-01   1.00800           0
     13287 MEMB     97       DOPC     O31      OSL     -0.490000       15.9994           0
     13288 MEMB     97       DOPC     C31      CL       0.900000       12.0110           0
     13289 MEMB     97       DOPC     O32      OBL     -0.630000       15.9994           0
     13290 MEMB     97       DOPC     C32      CTL2    -0.220000       12.0110           0
     13291 MEMB     97       DOPC     H2X      HAL2     0.900000E-01   1.00800           0
     13292 MEMB     97       DOPC     H2Y      HAL2     0.900000E-01   1.00800           0
     13293 MEMB     97       DOPC     C23      CTL2    -0.180000       12.0110           0
     13294 MEMB     97       DOPC     H3R      HAL2     0.900000E-01   1.00800           0
     13295 MEMB     97       DOPC     H3S      HAL2     0.900000E-01   1.00800           0
     13296 MEMB     97       DOPC     C24      CTL2    -0.180000       12.0110           0
     13297 MEMB     97       DOPC     H4R      HAL2     0.900000E-01   1.00800           0
     13298 MEMB     97       DOPC     H4S      HAL2     0.900000E-01   1.00800           0
     13299 MEMB     97       DOPC     C25      CTL2    -0.180000       12.0110           0
     13300 MEMB     97       DOPC     H5R      HAL2     0.900000E-01   1.00800           0
     13301 MEMB     97       DOPC     H5S      HAL2     0.900000E-01   1.00800           0
     13302 MEMB     97       DOPC     C26      CTL2    -0.180000       12.0110           0
     13303 MEMB     97       DOPC     H6R      HAL2     0.900000E-01   1.00800           0
     13304 MEMB     97       DOPC     H6S      HAL2     0.900000E-01   1.00800           0
     13305 MEMB     97       DOPC     C27      CTL2    -0.180000       12.0110           0
     13306 MEMB     97       DOPC     H7R      HAL2     0.900000E-01   1.00800           0
     13307 MEMB     97       DOPC     H7S      HAL2     0.900000E-01   1.00800           0
     13308 MEMB     97       DOPC     C28      CTL2    -0.180000       12.0110           0
     13309 MEMB     97       DOPC     H8R      HAL2     0.900000E-01   1.00800           0
     13310 MEMB     97       DOPC     H8S      HAL2     0.900000E-01   1.00800           0
     13311 MEMB     97       DOPC     C29      CEL1    -0.150000       12.0110           0
     13312 MEMB     97       DOPC     H9R      HEL1     0.150000       1.00800           0
     13313 MEMB     97       DOPC     C210     CEL1    -0.150000       12.0110           0
     13314 MEMB     97       DOPC     H10R     HEL1     0.150000       1.00800           0
     13315 MEMB     97       DOPC     C211     CTL2    -0.180000       12.0110           0
     13316 MEMB     97       DOPC     H11R     HAL2     0.900000E-01   1.00800           0
     13317 MEMB     97       DOPC     H11S     HAL2     0.900000E-01   1.00800           0
     13318 MEMB     97       DOPC     C212     CTL2    -0.180000       12.0110           0
     13319 MEMB     97       DOPC     H12R     HAL2     0.900000E-01   1.00800           0
     13320 MEMB     97       DOPC     H12S     HAL2     0.900000E-01   1.00800           0
     13321 MEMB     97       DOPC     C213     CTL2    -0.180000       12.0110           0
     13322 MEMB     97       DOPC     H13R     HAL2     0.900000E-01   1.00800           0
     13323 MEMB     97       DOPC     H13S     HAL2     0.900000E-01   1.00800           0
     13324 MEMB     97       DOPC     C214     CTL2    -0.180000       12.0110           0
     13325 MEMB     97       DOPC     H14R     HAL2     0.900000E-01   1.00800           0
     13326 MEMB     97       DOPC     H14S     HAL2     0.900000E-01   1.00800           0
     13327 MEMB     97       DOPC     C215     CTL2    -0.180000       12.0110           0
     13328 MEMB     97       DOPC     H15R     HAL2     0.900000E-01   1.00800           0
     13329 MEMB     97       DOPC     H15S     HAL2     0.900000E-01   1.00800           0
     13330 MEMB     97       DOPC     C216     CTL2    -0.180000       12.0110           0
     13331 MEMB     97       DOPC     H16R     HAL2     0.900000E-01   1.00800           0
     13332 MEMB     97       DOPC     H16S     HAL2     0.900000E-01   1.00800           0
     13333 MEMB     97       DOPC     C217     CTL2    -0.180000       12.0110           0
     13334 MEMB     97       DOPC     H17R     HAL2     0.900000E-01   1.00800           0
     13335 MEMB     97       DOPC     H17S     HAL2     0.900000E-01   1.00800           0
     13336 MEMB     97       DOPC     C218     CTL3    -0.270000       12.0110           0
     13337 MEMB     97       DOPC     H18R     HAL3     0.900000E-01   1.00800           0
     13338 MEMB     97       DOPC     H18S     HAL3     0.900000E-01   1.00800           0
     13339 MEMB     97       DOPC     H18T     HAL3     0.900000E-01   1.00800           0
     13340 MEMB     97       DOPC     C33      CTL2    -0.180000       12.0110           0
     13341 MEMB     97       DOPC     H3X      HAL2     0.900000E-01   1.00800           0
     13342 MEMB     97       DOPC     H3Y      HAL2     0.900000E-01   1.00800           0
     13343 MEMB     97       DOPC     C34      CTL2    -0.180000       12.0110           0
     13344 MEMB     97       DOPC     H4X      HAL2     0.900000E-01   1.00800           0
     13345 MEMB     97       DOPC     H4Y      HAL2     0.900000E-01   1.00800           0
     13346 MEMB     97       DOPC     C35      CTL2    -0.180000       12.0110           0
     13347 MEMB     97       DOPC     H5X      HAL2     0.900000E-01   1.00800           0
     13348 MEMB     97       DOPC     H5Y      HAL2     0.900000E-01   1.00800           0
     13349 MEMB     97       DOPC     C36      CTL2    -0.180000       12.0110           0
     13350 MEMB     97       DOPC     H6X      HAL2     0.900000E-01   1.00800           0
     13351 MEMB     97       DOPC     H6Y      HAL2     0.900000E-01   1.00800           0
     13352 MEMB     97       DOPC     C37      CTL2    -0.180000       12.0110           0
     13353 MEMB     97       DOPC     H7X      HAL2     0.900000E-01   1.00800           0
     13354 MEMB     97       DOPC     H7Y      HAL2     0.900000E-01   1.00800           0
     13355 MEMB     97       DOPC     C38      CTL2    -0.180000       12.0110           0
     13356 MEMB     97       DOPC     H8X      HAL2     0.900000E-01   1.00800           0
     13357 MEMB     97       DOPC     H8Y      HAL2     0.900000E-01   1.00800           0
     13358 MEMB     97       DOPC     C39      CEL1    -0.150000       12.0110           0
     13359 MEMB     97       DOPC     H9X      HEL1     0.150000       1.00800           0
     13360 MEMB     97       DOPC     C310     CEL1    -0.150000       12.0110           0
     13361 MEMB     97       DOPC     H10X     HEL1     0.150000       1.00800           0
     13362 MEMB     97       DOPC     C311     CTL2    -0.180000       12.0110           0
     13363 MEMB     97       DOPC     H11X     HAL2     0.900000E-01   1.00800           0
     13364 MEMB     97       DOPC     H11Y     HAL2     0.900000E-01   1.00800           0
     13365 MEMB     97       DOPC     C312     CTL2    -0.180000       12.0110           0
     13366 MEMB     97       DOPC     H12X     HAL2     0.900000E-01   1.00800           0
     13367 MEMB     97       DOPC     H12Y     HAL2     0.900000E-01   1.00800           0
     13368 MEMB     97       DOPC     C313     CTL2    -0.180000       12.0110           0
     13369 MEMB     97       DOPC     H13X     HAL2     0.900000E-01   1.00800           0
     13370 MEMB     97       DOPC     H13Y     HAL2     0.900000E-01   1.00800           0
     13371 MEMB     97       DOPC     C314     CTL2    -0.180000       12.0110           0
     13372 MEMB     97       DOPC     H14X     HAL2     0.900000E-01   1.00800           0
     13373 MEMB     97       DOPC     H14Y     HAL2     0.900000E-01   1.00800           0
     13374 MEMB     97       DOPC     C315     CTL2    -0.180000       12.0110           0
     13375 MEMB     97       DOPC     H15X     HAL2     0.900000E-01   1.00800           0
     13376 MEMB     97       DOPC     H15Y     HAL2     0.900000E-01   1.00800           0
     13377 MEMB     97       DOPC     C316     CTL2    -0.180000       12.0110           0
     13378 MEMB     97       DOPC     H16X     HAL2     0.900000E-01   1.00800           0
     13379 MEMB     97       DOPC     H16Y     HAL2     0.900000E-01   1.00800           0
     13380 MEMB     97       DOPC     C317     CTL2    -0.180000       12.0110           0
     13381 MEMB     97       DOPC     H17X     HAL2     0.900000E-01   1.00800           0
     13382 MEMB     97       DOPC     H17Y     HAL2     0.900000E-01   1.00800           0
     13383 MEMB     97       DOPC     C318     CTL3    -0.270000       12.0110           0
     13384 MEMB     97       DOPC     H18X     HAL3     0.900000E-01   1.00800           0
     13385 MEMB     97       DOPC     H18Y     HAL3     0.900000E-01   1.00800           0
     13386 MEMB     97       DOPC     H18Z     HAL3     0.900000E-01   1.00800           0
     13387 MEMB     98       DOPC     N        NTL     -0.600000       14.0070           0
     13388 MEMB     98       DOPC     C12      CTL2    -0.100000       12.0110           0
     13389 MEMB     98       DOPC     H12A     HL       0.250000       1.00800           0
     13390 MEMB     98       DOPC     H12B     HL       0.250000       1.00800           0
     13391 MEMB     98       DOPC     C13      CTL5    -0.350000       12.0110           0
     13392 MEMB     98       DOPC     H13A     HL       0.250000       1.00800           0
     13393 MEMB     98       DOPC     H13B     HL       0.250000       1.00800           0
     13394 MEMB     98       DOPC     H13C     HL       0.250000       1.00800           0
     13395 MEMB     98       DOPC     C14      CTL5    -0.350000       12.0110           0
     13396 MEMB     98       DOPC     H14A     HL       0.250000       1.00800           0
     13397 MEMB     98       DOPC     H14B     HL       0.250000       1.00800           0
     13398 MEMB     98       DOPC     H14C     HL       0.250000       1.00800           0
     13399 MEMB     98       DOPC     C15      CTL5    -0.350000       12.0110           0
     13400 MEMB     98       DOPC     H15A     HL       0.250000       1.00800           0
     13401 MEMB     98       DOPC     H15B     HL       0.250000       1.00800           0
     13402 MEMB     98       DOPC     H15C     HL       0.250000       1.00800           0
     13403 MEMB     98       DOPC     C11      CTL2    -0.800000E-01   12.0110           0
     13404 MEMB     98       DOPC     H11A     HAL2     0.900000E-01   1.00800           0
     13405 MEMB     98       DOPC     H11B     HAL2     0.900000E-01   1.00800           0
     13406 MEMB     98       DOPC     P        PL        1.50000       30.9740           0
     13407 MEMB     98       DOPC     O13      O2L     -0.780000       15.9994           0
     13408 MEMB     98       DOPC     O14      O2L     -0.780000       15.9994           0
     13409 MEMB     98       DOPC     O12      OSLP    -0.570000       15.9994           0
     13410 MEMB     98       DOPC     O11      OSLP    -0.570000       15.9994           0
     13411 MEMB     98       DOPC     C1       CTL2    -0.800000E-01   12.0110           0
     13412 MEMB     98       DOPC     HA       HAL2     0.900000E-01   1.00800           0
     13413 MEMB     98       DOPC     HB       HAL2     0.900000E-01   1.00800           0
     13414 MEMB     98       DOPC     C2       CTL1     0.170000       12.0110           0
     13415 MEMB     98       DOPC     HS       HAL1     0.900000E-01   1.00800           0
     13416 MEMB     98       DOPC     O21      OSL     -0.490000       15.9994           0
     13417 MEMB     98       DOPC     C21      CL       0.900000       12.0110           0
     13418 MEMB     98       DOPC     O22      OBL     -0.630000       15.9994           0
     13419 MEMB     98       DOPC     C22      CTL2    -0.220000       12.0110           0
     13420 MEMB     98       DOPC     H2R      HAL2     0.900000E-01   1.00800           0
     13421 MEMB     98       DOPC     H2S      HAL2     0.900000E-01   1.00800           0
     13422 MEMB     98       DOPC     C3       CTL2     0.800000E-01   12.0110           0
     13423 MEMB     98       DOPC     HX       HAL2     0.900000E-01   1.00800           0
     13424 MEMB     98       DOPC     HY       HAL2     0.900000E-01   1.00800           0
     13425 MEMB     98       DOPC     O31      OSL     -0.490000       15.9994           0
     13426 MEMB     98       DOPC     C31      CL       0.900000       12.0110           0
     13427 MEMB     98       DOPC     O32      OBL     -0.630000       15.9994           0
     13428 MEMB     98       DOPC     C32      CTL2    -0.220000       12.0110           0
     13429 MEMB     98       DOPC     H2X      HAL2     0.900000E-01   1.00800           0
     13430 MEMB     98       DOPC     H2Y      HAL2     0.900000E-01   1.00800           0
     13431 MEMB     98       DOPC     C23      CTL2    -0.180000       12.0110           0
     13432 MEMB     98       DOPC     H3R      HAL2     0.900000E-01   1.00800           0
     13433 MEMB     98       DOPC     H3S      HAL2     0.900000E-01   1.00800           0
     13434 MEMB     98       DOPC     C24      CTL2    -0.180000       12.0110           0
     13435 MEMB     98       DOPC     H4R      HAL2     0.900000E-01   1.00800           0
     13436 MEMB     98       DOPC     H4S      HAL2     0.900000E-01   1.00800           0
     13437 MEMB     98       DOPC     C25      CTL2    -0.180000       12.0110           0
     13438 MEMB     98       DOPC     H5R      HAL2     0.900000E-01   1.00800           0
     13439 MEMB     98       DOPC     H5S      HAL2     0.900000E-01   1.00800           0
     13440 MEMB     98       DOPC     C26      CTL2    -0.180000       12.0110           0
     13441 MEMB     98       DOPC     H6R      HAL2     0.900000E-01   1.00800           0
     13442 MEMB     98       DOPC     H6S      HAL2     0.900000E-01   1.00800           0
     13443 MEMB     98       DOPC     C27      CTL2    -0.180000       12.0110           0
     13444 MEMB     98       DOPC     H7R      HAL2     0.900000E-01   1.00800           0
     13445 MEMB     98       DOPC     H7S      HAL2     0.900000E-01   1.00800           0
     13446 MEMB     98       DOPC     C28      CTL2    -0.180000       12.0110           0
     13447 MEMB     98       DOPC     H8R      HAL2     0.900000E-01   1.00800           0
     13448 MEMB     98       DOPC     H8S      HAL2     0.900000E-01   1.00800           0
     13449 MEMB     98       DOPC     C29      CEL1    -0.150000       12.0110           0
     13450 MEMB     98       DOPC     H9R      HEL1     0.150000       1.00800           0
     13451 MEMB     98       DOPC     C210     CEL1    -0.150000       12.0110           0
     13452 MEMB     98       DOPC     H10R     HEL1     0.150000       1.00800           0
     13453 MEMB     98       DOPC     C211     CTL2    -0.180000       12.0110           0
     13454 MEMB     98       DOPC     H11R     HAL2     0.900000E-01   1.00800           0
     13455 MEMB     98       DOPC     H11S     HAL2     0.900000E-01   1.00800           0
     13456 MEMB     98       DOPC     C212     CTL2    -0.180000       12.0110           0
     13457 MEMB     98       DOPC     H12R     HAL2     0.900000E-01   1.00800           0
     13458 MEMB     98       DOPC     H12S     HAL2     0.900000E-01   1.00800           0
     13459 MEMB     98       DOPC     C213     CTL2    -0.180000       12.0110           0
     13460 MEMB     98       DOPC     H13R     HAL2     0.900000E-01   1.00800           0
     13461 MEMB     98       DOPC     H13S     HAL2     0.900000E-01   1.00800           0
     13462 MEMB     98       DOPC     C214     CTL2    -0.180000       12.0110           0
     13463 MEMB     98       DOPC     H14R     HAL2     0.900000E-01   1.00800           0
     13464 MEMB     98       DOPC     H14S     HAL2     0.900000E-01   1.00800           0
     13465 MEMB     98       DOPC     C215     CTL2    -0.180000       12.0110           0
     13466 MEMB     98       DOPC     H15R     HAL2     0.900000E-01   1.00800           0
     13467 MEMB     98       DOPC     H15S     HAL2     0.900000E-01   1.00800           0
     13468 MEMB     98       DOPC     C216     CTL2    -0.180000       12.0110           0
     13469 MEMB     98       DOPC     H16R     HAL2     0.900000E-01   1.00800           0
     13470 MEMB     98       DOPC     H16S     HAL2     0.900000E-01   1.00800           0
     13471 MEMB     98       DOPC     C217     CTL2    -0.180000       12.0110           0
     13472 MEMB     98       DOPC     H17R     HAL2     0.900000E-01   1.00800           0
     13473 MEMB     98       DOPC     H17S     HAL2     0.900000E-01   1.00800           0
     13474 MEMB     98       DOPC     C218     CTL3    -0.270000       12.0110           0
     13475 MEMB     98       DOPC     H18R     HAL3     0.900000E-01   1.00800           0
     13476 MEMB     98       DOPC     H18S     HAL3     0.900000E-01   1.00800           0
     13477 MEMB     98       DOPC     H18T     HAL3     0.900000E-01   1.00800           0
     13478 MEMB     98       DOPC     C33      CTL2    -0.180000       12.0110           0
     13479 MEMB     98       DOPC     H3X      HAL2     0.900000E-01   1.00800           0
     13480 MEMB     98       DOPC     H3Y      HAL2     0.900000E-01   1.00800           0
     13481 MEMB     98       DOPC     C34      CTL2    -0.180000       12.0110           0
     13482 MEMB     98       DOPC     H4X      HAL2     0.900000E-01   1.00800           0
     13483 MEMB     98       DOPC     H4Y      HAL2     0.900000E-01   1.00800           0
     13484 MEMB     98       DOPC     C35      CTL2    -0.180000       12.0110           0
     13485 MEMB     98       DOPC     H5X      HAL2     0.900000E-01   1.00800           0
     13486 MEMB     98       DOPC     H5Y      HAL2     0.900000E-01   1.00800           0
     13487 MEMB     98       DOPC     C36      CTL2    -0.180000       12.0110           0
     13488 MEMB     98       DOPC     H6X      HAL2     0.900000E-01   1.00800           0
     13489 MEMB     98       DOPC     H6Y      HAL2     0.900000E-01   1.00800           0
     13490 MEMB     98       DOPC     C37      CTL2    -0.180000       12.0110           0
     13491 MEMB     98       DOPC     H7X      HAL2     0.900000E-01   1.00800           0
     13492 MEMB     98       DOPC     H7Y      HAL2     0.900000E-01   1.00800           0
     13493 MEMB     98       DOPC     C38      CTL2    -0.180000       12.0110           0
     13494 MEMB     98       DOPC     H8X      HAL2     0.900000E-01   1.00800           0
     13495 MEMB     98       DOPC     H8Y      HAL2     0.900000E-01   1.00800           0
     13496 MEMB     98       DOPC     C39      CEL1    -0.150000       12.0110           0
     13497 MEMB     98       DOPC     H9X      HEL1     0.150000       1.00800           0
     13498 MEMB     98       DOPC     C310     CEL1    -0.150000       12.0110           0
     13499 MEMB     98       DOPC     H10X     HEL1     0.150000       1.00800           0
     13500 MEMB     98       DOPC     C311     CTL2    -0.180000       12.0110           0
     13501 MEMB     98       DOPC     H11X     HAL2     0.900000E-01   1.00800           0
     13502 MEMB     98       DOPC     H11Y     HAL2     0.900000E-01   1.00800           0
     13503 MEMB     98       DOPC     C312     CTL2    -0.180000       12.0110           0
     13504 MEMB     98       DOPC     H12X     HAL2     0.900000E-01   1.00800           0
     13505 MEMB     98       DOPC     H12Y     HAL2     0.900000E-01   1.00800           0
     13506 MEMB     98       DOPC     C313     CTL2    -0.180000       12.0110           0
     13507 MEMB     98       DOPC     H13X     HAL2     0.900000E-01   1.00800           0
     13508 MEMB     98       DOPC     H13Y     HAL2     0.900000E-01   1.00800           0
     13509 MEMB     98       DOPC     C314     CTL2    -0.180000       12.0110           0
     13510 MEMB     98       DOPC     H14X     HAL2     0.900000E-01   1.00800           0
     13511 MEMB     98       DOPC     H14Y     HAL2     0.900000E-01   1.00800           0
     13512 MEMB     98       DOPC     C315     CTL2    -0.180000       12.0110           0
     13513 MEMB     98       DOPC     H15X     HAL2     0.900000E-01   1.00800           0
     13514 MEMB     98       DOPC     H15Y     HAL2     0.900000E-01   1.00800           0
     13515 MEMB     98       DOPC     C316     CTL2    -0.180000       12.0110           0
     13516 MEMB     98       DOPC     H16X     HAL2     0.900000E-01   1.00800           0
     13517 MEMB     98       DOPC     H16Y     HAL2     0.900000E-01   1.00800           0
     13518 MEMB     98       DOPC     C317     CTL2    -0.180000       12.0110           0
     13519 MEMB     98       DOPC     H17X     HAL2     0.900000E-01   1.00800           0
     13520 MEMB     98       DOPC     H17Y     HAL2     0.900000E-01   1.00800           0
     13521 MEMB     98       DOPC     C318     CTL3    -0.270000       12.0110           0
     13522 MEMB     98       DOPC     H18X     HAL3     0.900000E-01   1.00800           0
     13523 MEMB     98       DOPC     H18Y     HAL3     0.900000E-01   1.00800           0
     13524 MEMB     98       DOPC     H18Z     HAL3     0.900000E-01   1.00800           0
     13525 MEMB     99       DOPC     N        NTL     -0.600000       14.0070           0
     13526 MEMB     99       DOPC     C12      CTL2    -0.100000       12.0110           0
     13527 MEMB     99       DOPC     H12A     HL       0.250000       1.00800           0
     13528 MEMB     99       DOPC     H12B     HL       0.250000       1.00800           0
     13529 MEMB     99       DOPC     C13      CTL5    -0.350000       12.0110           0
     13530 MEMB     99       DOPC     H13A     HL       0.250000       1.00800           0
     13531 MEMB     99       DOPC     H13B     HL       0.250000       1.00800           0
     13532 MEMB     99       DOPC     H13C     HL       0.250000       1.00800           0
     13533 MEMB     99       DOPC     C14      CTL5    -0.350000       12.0110           0
     13534 MEMB     99       DOPC     H14A     HL       0.250000       1.00800           0
     13535 MEMB     99       DOPC     H14B     HL       0.250000       1.00800           0
     13536 MEMB     99       DOPC     H14C     HL       0.250000       1.00800           0
     13537 MEMB     99       DOPC     C15      CTL5    -0.350000       12.0110           0
     13538 MEMB     99       DOPC     H15A     HL       0.250000       1.00800           0
     13539 MEMB     99       DOPC     H15B     HL       0.250000       1.00800           0
     13540 MEMB     99       DOPC     H15C     HL       0.250000       1.00800           0
     13541 MEMB     99       DOPC     C11      CTL2    -0.800000E-01   12.0110           0
     13542 MEMB     99       DOPC     H11A     HAL2     0.900000E-01   1.00800           0
     13543 MEMB     99       DOPC     H11B     HAL2     0.900000E-01   1.00800           0
     13544 MEMB     99       DOPC     P        PL        1.50000       30.9740           0
     13545 MEMB     99       DOPC     O13      O2L     -0.780000       15.9994           0
     13546 MEMB     99       DOPC     O14      O2L     -0.780000       15.9994           0
     13547 MEMB     99       DOPC     O12      OSLP    -0.570000       15.9994           0
     13548 MEMB     99       DOPC     O11      OSLP    -0.570000       15.9994           0
     13549 MEMB     99       DOPC     C1       CTL2    -0.800000E-01   12.0110           0
     13550 MEMB     99       DOPC     HA       HAL2     0.900000E-01   1.00800           0
     13551 MEMB     99       DOPC     HB       HAL2     0.900000E-01   1.00800           0
     13552 MEMB     99       DOPC     C2       CTL1     0.170000       12.0110           0
     13553 MEMB     99       DOPC     HS       HAL1     0.900000E-01   1.00800           0
     13554 MEMB     99       DOPC     O21      OSL     -0.490000       15.9994           0
     13555 MEMB     99       DOPC     C21      CL       0.900000       12.0110           0
     13556 MEMB     99       DOPC     O22      OBL     -0.630000       15.9994           0
     13557 MEMB     99       DOPC     C22      CTL2    -0.220000       12.0110           0
     13558 MEMB     99       DOPC     H2R      HAL2     0.900000E-01   1.00800           0
     13559 MEMB     99       DOPC     H2S      HAL2     0.900000E-01   1.00800           0
     13560 MEMB     99       DOPC     C3       CTL2     0.800000E-01   12.0110           0
     13561 MEMB     99       DOPC     HX       HAL2     0.900000E-01   1.00800           0
     13562 MEMB     99       DOPC     HY       HAL2     0.900000E-01   1.00800           0
     13563 MEMB     99       DOPC     O31      OSL     -0.490000       15.9994           0
     13564 MEMB     99       DOPC     C31      CL       0.900000       12.0110           0
     13565 MEMB     99       DOPC     O32      OBL     -0.630000       15.9994           0
     13566 MEMB     99       DOPC     C32      CTL2    -0.220000       12.0110           0
     13567 MEMB     99       DOPC     H2X      HAL2     0.900000E-01   1.00800           0
     13568 MEMB     99       DOPC     H2Y      HAL2     0.900000E-01   1.00800           0
     13569 MEMB     99       DOPC     C23      CTL2    -0.180000       12.0110           0
     13570 MEMB     99       DOPC     H3R      HAL2     0.900000E-01   1.00800           0
     13571 MEMB     99       DOPC     H3S      HAL2     0.900000E-01   1.00800           0
     13572 MEMB     99       DOPC     C24      CTL2    -0.180000       12.0110           0
     13573 MEMB     99       DOPC     H4R      HAL2     0.900000E-01   1.00800           0
     13574 MEMB     99       DOPC     H4S      HAL2     0.900000E-01   1.00800           0
     13575 MEMB     99       DOPC     C25      CTL2    -0.180000       12.0110           0
     13576 MEMB     99       DOPC     H5R      HAL2     0.900000E-01   1.00800           0
     13577 MEMB     99       DOPC     H5S      HAL2     0.900000E-01   1.00800           0
     13578 MEMB     99       DOPC     C26      CTL2    -0.180000       12.0110           0
     13579 MEMB     99       DOPC     H6R      HAL2     0.900000E-01   1.00800           0
     13580 MEMB     99       DOPC     H6S      HAL2     0.900000E-01   1.00800           0
     13581 MEMB     99       DOPC     C27      CTL2    -0.180000       12.0110           0
     13582 MEMB     99       DOPC     H7R      HAL2     0.900000E-01   1.00800           0
     13583 MEMB     99       DOPC     H7S      HAL2     0.900000E-01   1.00800           0
     13584 MEMB     99       DOPC     C28      CTL2    -0.180000       12.0110           0
     13585 MEMB     99       DOPC     H8R      HAL2     0.900000E-01   1.00800           0
     13586 MEMB     99       DOPC     H8S      HAL2     0.900000E-01   1.00800           0
     13587 MEMB     99       DOPC     C29      CEL1    -0.150000       12.0110           0
     13588 MEMB     99       DOPC     H9R      HEL1     0.150000       1.00800           0
     13589 MEMB     99       DOPC     C210     CEL1    -0.150000       12.0110           0
     13590 MEMB     99       DOPC     H10R     HEL1     0.150000       1.00800           0
     13591 MEMB     99       DOPC     C211     CTL2    -0.180000       12.0110           0
     13592 MEMB     99       DOPC     H11R     HAL2     0.900000E-01   1.00800           0
     13593 MEMB     99       DOPC     H11S     HAL2     0.900000E-01   1.00800           0
     13594 MEMB     99       DOPC     C212     CTL2    -0.180000       12.0110           0
     13595 MEMB     99       DOPC     H12R     HAL2     0.900000E-01   1.00800           0
     13596 MEMB     99       DOPC     H12S     HAL2     0.900000E-01   1.00800           0
     13597 MEMB     99       DOPC     C213     CTL2    -0.180000       12.0110           0
     13598 MEMB     99       DOPC     H13R     HAL2     0.900000E-01   1.00800           0
     13599 MEMB     99       DOPC     H13S     HAL2     0.900000E-01   1.00800           0
     13600 MEMB     99       DOPC     C214     CTL2    -0.180000       12.0110           0
     13601 MEMB     99       DOPC     H14R     HAL2     0.900000E-01   1.00800           0
     13602 MEMB     99       DOPC     H14S     HAL2     0.900000E-01   1.00800           0
     13603 MEMB     99       DOPC     C215     CTL2    -0.180000       12.0110           0
     13604 MEMB     99       DOPC     H15R     HAL2     0.900000E-01   1.00800           0
     13605 MEMB     99       DOPC     H15S     HAL2     0.900000E-01   1.00800           0
     13606 MEMB     99       DOPC     C216     CTL2    -0.180000       12.0110           0
     13607 MEMB     99       DOPC     H16R     HAL2     0.900000E-01   1.00800           0
     13608 MEMB     99       DOPC     H16S     HAL2     0.900000E-01   1.00800           0
     13609 MEMB     99       DOPC     C217     CTL2    -0.180000       12.0110           0
     13610 MEMB     99       DOPC     H17R     HAL2     0.900000E-01   1.00800           0
     13611 MEMB     99       DOPC     H17S     HAL2     0.900000E-01   1.00800           0
     13612 MEMB     99       DOPC     C218     CTL3    -0.270000       12.0110           0
     13613 MEMB     99       DOPC     H18R     HAL3     0.900000E-01   1.00800           0
     13614 MEMB     99       DOPC     H18S     HAL3     0.900000E-01   1.00800           0
     13615 MEMB     99       DOPC     H18T     HAL3     0.900000E-01   1.00800           0
     13616 MEMB     99       DOPC     C33      CTL2    -0.180000       12.0110           0
     13617 MEMB     99       DOPC     H3X      HAL2     0.900000E-01   1.00800           0
     13618 MEMB     99       DOPC     H3Y      HAL2     0.900000E-01   1.00800           0
     13619 MEMB     99       DOPC     C34      CTL2    -0.180000       12.0110           0
     13620 MEMB     99       DOPC     H4X      HAL2     0.900000E-01   1.00800           0
     13621 MEMB     99       DOPC     H4Y      HAL2     0.900000E-01   1.00800           0
     13622 MEMB     99       DOPC     C35      CTL2    -0.180000       12.0110           0
     13623 MEMB     99       DOPC     H5X      HAL2     0.900000E-01   1.00800           0
     13624 MEMB     99       DOPC     H5Y      HAL2     0.900000E-01   1.00800           0
     13625 MEMB     99       DOPC     C36      CTL2    -0.180000       12.0110           0
     13626 MEMB     99       DOPC     H6X      HAL2     0.900000E-01   1.00800           0
     13627 MEMB     99       DOPC     H6Y      HAL2     0.900000E-01   1.00800           0
     13628 MEMB     99       DOPC     C37      CTL2    -0.180000       12.0110           0
     13629 MEMB     99       DOPC     H7X      HAL2     0.900000E-01   1.00800           0
     13630 MEMB     99       DOPC     H7Y      HAL2     0.900000E-01   1.00800           0
     13631 MEMB     99       DOPC     C38      CTL2    -0.180000       12.0110           0
     13632 MEMB     99       DOPC     H8X      HAL2     0.900000E-01   1.00800           0
     13633 MEMB     99       DOPC     H8Y      HAL2     0.900000E-01   1.00800           0
     13634 MEMB     99       DOPC     C39      CEL1    -0.150000       12.0110           0
     13635 MEMB     99       DOPC     H9X      HEL1     0.150000       1.00800           0
     13636 MEMB     99       DOPC     C310     CEL1    -0.150000       12.0110           0
     13637 MEMB     99       DOPC     H10X     HEL1     0.150000       1.00800           0
     13638 MEMB     99       DOPC     C311     CTL2    -0.180000       12.0110           0
     13639 MEMB     99       DOPC     H11X     HAL2     0.900000E-01   1.00800           0
     13640 MEMB     99       DOPC     H11Y     HAL2     0.900000E-01   1.00800           0
     13641 MEMB     99       DOPC     C312     CTL2    -0.180000       12.0110           0
     13642 MEMB     99       DOPC     H12X     HAL2     0.900000E-01   1.00800           0
     13643 MEMB     99       DOPC     H12Y     HAL2     0.900000E-01   1.00800           0
     13644 MEMB     99       DOPC     C313     CTL2    -0.180000       12.0110           0
     13645 MEMB     99       DOPC     H13X     HAL2     0.900000E-01   1.00800           0
     13646 MEMB     99       DOPC     H13Y     HAL2     0.900000E-01   1.00800           0
     13647 MEMB     99       DOPC     C314     CTL2    -0.180000       12.0110           0
     13648 MEMB     99       DOPC     H14X     HAL2     0.900000E-01   1.00800           0
     13649 MEMB     99       DOPC     H14Y     HAL2     0.900000E-01   1.00800           0
     13650 MEMB     99       DOPC     C315     CTL2    -0.180000       12.0110           0
     13651 MEMB     99       DOPC     H15X     HAL2     0.900000E-01   1.00800           0
     13652 MEMB     99       DOPC     H15Y     HAL2     0.900000E-01   1.00800           0
     13653 MEMB     99       DOPC     C316     CTL2    -0.180000       12.0110           0
     13654 MEMB     99       DOPC     H16X     HAL2     0.900000E-01   1.00800           0
     13655 MEMB     99       DOPC     H16Y     HAL2     0.900000E-01   1.00800           0
     13656 MEMB     99       DOPC     C317     CTL2    -0.180000       12.0110           0
     13657 MEMB     99       DOPC     H17X     HAL2     0.900000E-01   1.00800           0
     13658 MEMB     99       DOPC     H17Y     HAL2     0.900000E-01   1.00800           0
     13659 MEMB     99       DOPC     C318     CTL3    -0.270000       12.0110           0
     13660 MEMB     99       DOPC     H18X     HAL3     0.900000E-01   1.00800           0
     13661 MEMB     99       DOPC     H18Y     HAL3     0.900000E-01   1.00800           0
     13662 MEMB     99       DOPC     H18Z     HAL3     0.900000E-01   1.00800           0
     13663 MEMB     100      DOPC     N        NTL     -0.600000       14.0070           0
     13664 MEMB     100      DOPC     C12      CTL2    -0.100000       12.0110           0
     13665 MEMB     100      DOPC     H12A     HL       0.250000       1.00800           0
     13666 MEMB     100      DOPC     H12B     HL       0.250000       1.00800           0
     13667 MEMB     100      DOPC     C13      CTL5    -0.350000       12.0110           0
     13668 MEMB     100      DOPC     H13A     HL       0.250000       1.00800           0
     13669 MEMB     100      DOPC     H13B     HL       0.250000       1.00800           0
     13670 MEMB     100      DOPC     H13C     HL       0.250000       1.00800           0
     13671 MEMB     100      DOPC     C14      CTL5    -0.350000       12.0110           0
     13672 MEMB     100      DOPC     H14A     HL       0.250000       1.00800           0
     13673 MEMB     100      DOPC     H14B     HL       0.250000       1.00800           0
     13674 MEMB     100      DOPC     H14C     HL       0.250000       1.00800           0
     13675 MEMB     100      DOPC     C15      CTL5    -0.350000       12.0110           0
     13676 MEMB     100      DOPC     H15A     HL       0.250000       1.00800           0
     13677 MEMB     100      DOPC     H15B     HL       0.250000       1.00800           0
     13678 MEMB     100      DOPC     H15C     HL       0.250000       1.00800           0
     13679 MEMB     100      DOPC     C11      CTL2    -0.800000E-01   12.0110           0
     13680 MEMB     100      DOPC     H11A     HAL2     0.900000E-01   1.00800           0
     13681 MEMB     100      DOPC     H11B     HAL2     0.900000E-01   1.00800           0
     13682 MEMB     100      DOPC     P        PL        1.50000       30.9740           0
     13683 MEMB     100      DOPC     O13      O2L     -0.780000       15.9994           0
     13684 MEMB     100      DOPC     O14      O2L     -0.780000       15.9994           0
     13685 MEMB     100      DOPC     O12      OSLP    -0.570000       15.9994           0
     13686 MEMB     100      DOPC     O11      OSLP    -0.570000       15.9994           0
     13687 MEMB     100      DOPC     C1       CTL2    -0.800000E-01   12.0110           0
     13688 MEMB     100      DOPC     HA       HAL2     0.900000E-01   1.00800           0
     13689 MEMB     100      DOPC     HB       HAL2     0.900000E-01   1.00800           0
     13690 MEMB     100      DOPC     C2       CTL1     0.170000       12.0110           0
     13691 MEMB     100      DOPC     HS       HAL1     0.900000E-01   1.00800           0
     13692 MEMB     100      DOPC     O21      OSL     -0.490000       15.9994           0
     13693 MEMB     100      DOPC     C21      CL       0.900000       12.0110           0
     13694 MEMB     100      DOPC     O22      OBL     -0.630000       15.9994           0
     13695 MEMB     100      DOPC     C22      CTL2    -0.220000       12.0110           0
     13696 MEMB     100      DOPC     H2R      HAL2     0.900000E-01   1.00800           0
     13697 MEMB     100      DOPC     H2S      HAL2     0.900000E-01   1.00800           0
     13698 MEMB     100      DOPC     C3       CTL2     0.800000E-01   12.0110           0
     13699 MEMB     100      DOPC     HX       HAL2     0.900000E-01   1.00800           0
     13700 MEMB     100      DOPC     HY       HAL2     0.900000E-01   1.00800           0
     13701 MEMB     100      DOPC     O31      OSL     -0.490000       15.9994           0
     13702 MEMB     100      DOPC     C31      CL       0.900000       12.0110           0
     13703 MEMB     100      DOPC     O32      OBL     -0.630000       15.9994           0
     13704 MEMB     100      DOPC     C32      CTL2    -0.220000       12.0110           0
     13705 MEMB     100      DOPC     H2X      HAL2     0.900000E-01   1.00800           0
     13706 MEMB     100      DOPC     H2Y      HAL2     0.900000E-01   1.00800           0
     13707 MEMB     100      DOPC     C23      CTL2    -0.180000       12.0110           0
     13708 MEMB     100      DOPC     H3R      HAL2     0.900000E-01   1.00800           0
     13709 MEMB     100      DOPC     H3S      HAL2     0.900000E-01   1.00800           0
     13710 MEMB     100      DOPC     C24      CTL2    -0.180000       12.0110           0
     13711 MEMB     100      DOPC     H4R      HAL2     0.900000E-01   1.00800           0
     13712 MEMB     100      DOPC     H4S      HAL2     0.900000E-01   1.00800           0
     13713 MEMB     100      DOPC     C25      CTL2    -0.180000       12.0110           0
     13714 MEMB     100      DOPC     H5R      HAL2     0.900000E-01   1.00800           0
     13715 MEMB     100      DOPC     H5S      HAL2     0.900000E-01   1.00800           0
     13716 MEMB     100      DOPC     C26      CTL2    -0.180000       12.0110           0
     13717 MEMB     100      DOPC     H6R      HAL2     0.900000E-01   1.00800           0
     13718 MEMB     100      DOPC     H6S      HAL2     0.900000E-01   1.00800           0
     13719 MEMB     100      DOPC     C27      CTL2    -0.180000       12.0110           0
     13720 MEMB     100      DOPC     H7R      HAL2     0.900000E-01   1.00800           0
     13721 MEMB     100      DOPC     H7S      HAL2     0.900000E-01   1.00800           0
     13722 MEMB     100      DOPC     C28      CTL2    -0.180000       12.0110           0
     13723 MEMB     100      DOPC     H8R      HAL2     0.900000E-01   1.00800           0
     13724 MEMB     100      DOPC     H8S      HAL2     0.900000E-01   1.00800           0
     13725 MEMB     100      DOPC     C29      CEL1    -0.150000       12.0110           0
     13726 MEMB     100      DOPC     H9R      HEL1     0.150000       1.00800           0
     13727 MEMB     100      DOPC     C210     CEL1    -0.150000       12.0110           0
     13728 MEMB     100      DOPC     H10R     HEL1     0.150000       1.00800           0
     13729 MEMB     100      DOPC     C211     CTL2    -0.180000       12.0110           0
     13730 MEMB     100      DOPC     H11R     HAL2     0.900000E-01   1.00800           0
     13731 MEMB     100      DOPC     H11S     HAL2     0.900000E-01   1.00800           0
     13732 MEMB     100      DOPC     C212     CTL2    -0.180000       12.0110           0
     13733 MEMB     100      DOPC     H12R     HAL2     0.900000E-01   1.00800           0
     13734 MEMB     100      DOPC     H12S     HAL2     0.900000E-01   1.00800           0
     13735 MEMB     100      DOPC     C213     CTL2    -0.180000       12.0110           0
     13736 MEMB     100      DOPC     H13R     HAL2     0.900000E-01   1.00800           0
     13737 MEMB     100      DOPC     H13S     HAL2     0.900000E-01   1.00800           0
     13738 MEMB     100      DOPC     C214     CTL2    -0.180000       12.0110           0
     13739 MEMB     100      DOPC     H14R     HAL2     0.900000E-01   1.00800           0
     13740 MEMB     100      DOPC     H14S     HAL2     0.900000E-01   1.00800           0
     13741 MEMB     100      DOPC     C215     CTL2    -0.180000       12.0110           0
     13742 MEMB     100      DOPC     H15R     HAL2     0.900000E-01   1.00800           0
     13743 MEMB     100      DOPC     H15S     HAL2     0.900000E-01   1.00800           0
     13744 MEMB     100      DOPC     C216     CTL2    -0.180000       12.0110           0
     13745 MEMB     100      DOPC     H16R     HAL2     0.900000E-01   1.00800           0
     13746 MEMB     100      DOPC     H16S     HAL2     0.900000E-01   1.00800           0
     13747 MEMB     100      DOPC     C217     CTL2    -0.180000       12.0110           0
     13748 MEMB     100      DOPC     H17R     HAL2     0.900000E-01   1.00800           0
     13749 MEMB     100      DOPC     H17S     HAL2     0.900000E-01   1.00800           0
     13750 MEMB     100      DOPC     C218     CTL3    -0.270000       12.0110           0
     13751 MEMB     100      DOPC     H18R     HAL3     0.900000E-01   1.00800           0
     13752 MEMB     100      DOPC     H18S     HAL3     0.900000E-01   1.00800           0
     13753 MEMB     100      DOPC     H18T     HAL3     0.900000E-01   1.00800           0
     13754 MEMB     100      DOPC     C33      CTL2    -0.180000       12.0110           0
     13755 MEMB     100      DOPC     H3X      HAL2     0.900000E-01   1.00800           0
     13756 MEMB     100      DOPC     H3Y      HAL2     0.900000E-01   1.00800           0
     13757 MEMB     100      DOPC     C34      CTL2    -0.180000       12.0110           0
     13758 MEMB     100      DOPC     H4X      HAL2     0.900000E-01   1.00800           0
     13759 MEMB     100      DOPC     H4Y      HAL2     0.900000E-01   1.00800           0
     13760 MEMB     100      DOPC     C35      CTL2    -0.180000       12.0110           0
     13761 MEMB     100      DOPC     H5X      HAL2     0.900000E-01   1.00800           0
     13762 MEMB     100      DOPC     H5Y      HAL2     0.900000E-01   1.00800           0
     13763 MEMB     100      DOPC     C36      CTL2    -0.180000       12.0110           0
     13764 MEMB     100      DOPC     H6X      HAL2     0.900000E-01   1.00800           0
     13765 MEMB     100      DOPC     H6Y      HAL2     0.900000E-01   1.00800           0
     13766 MEMB     100      DOPC     C37      CTL2    -0.180000       12.0110           0
     13767 MEMB     100      DOPC     H7X      HAL2     0.900000E-01   1.00800           0
     13768 MEMB     100      DOPC     H7Y      HAL2     0.900000E-01   1.00800           0
     13769 MEMB     100      DOPC     C38      CTL2    -0.180000       12.0110           0
     13770 MEMB     100      DOPC     H8X      HAL2     0.900000E-01   1.00800           0
     13771 MEMB     100      DOPC     H8Y      HAL2     0.900000E-01   1.00800           0
     13772 MEMB     100      DOPC     C39      CEL1    -0.150000       12.0110           0
     13773 MEMB     100      DOPC     H9X      HEL1     0.150000       1.00800           0
     13774 MEMB     100      DOPC     C310     CEL1    -0.150000       12.0110           0
     13775 MEMB     100      DOPC     H10X     HEL1     0.150000       1.00800           0
     13776 MEMB     100      DOPC     C311     CTL2    -0.180000       12.0110           0
     13777 MEMB     100      DOPC     H11X     HAL2     0.900000E-01   1.00800           0
     13778 MEMB     100      DOPC     H11Y     HAL2     0.900000E-01   1.00800           0
     13779 MEMB     100      DOPC     C312     CTL2    -0.180000       12.0110           0
     13780 MEMB     100      DOPC     H12X     HAL2     0.900000E-01   1.00800           0
     13781 MEMB     100      DOPC     H12Y     HAL2     0.900000E-01   1.00800           0
     13782 MEMB     100      DOPC     C313     CTL2    -0.180000       12.0110           0
     13783 MEMB     100      DOPC     H13X     HAL2     0.900000E-01   1.00800           0
     13784 MEMB     100      DOPC     H13Y     HAL2     0.900000E-01   1.00800           0
     13785 MEMB     100      DOPC     C314     CTL2    -0.180000       12.0110           0
     13786 MEMB     100      DOPC     H14X     HAL2     0.900000E-01   1.00800           0
     13787 MEMB     100      DOPC     H14Y     HAL2     0.900000E-01   1.00800           0
     13788 MEMB     100      DOPC     C315     CTL2    -0.180000       12.0110           0
     13789 MEMB     100      DOPC     H15X     HAL2     0.900000E-01   1.00800           0
     13790 MEMB     100      DOPC     H15Y     HAL2     0.900000E-01   1.00800           0
     13791 MEMB     100      DOPC     C316     CTL2    -0.180000       12.0110           0
     13792 MEMB     100      DOPC     H16X     HAL2     0.900000E-01   1.00800           0
     13793 MEMB     100      DOPC     H16Y     HAL2     0.900000E-01   1.00800           0
     13794 MEMB     100      DOPC     C317     CTL2    -0.180000       12.0110           0
     13795 MEMB     100      DOPC     H17X     HAL2     0.900000E-01   1.00800           0
     13796 MEMB     100      DOPC     H17Y     HAL2     0.900000E-01   1.00800           0
     13797 MEMB     100      DOPC     C318     CTL3    -0.270000       12.0110           0
     13798 MEMB     100      DOPC     H18X     HAL3     0.900000E-01   1.00800           0
     13799 MEMB     100      DOPC     H18Y     HAL3     0.900000E-01   1.00800           0
     13800 MEMB     100      DOPC     H18Z     HAL3     0.900000E-01   1.00800           0
     13801 TIP3     1        TIP3     OH2      OT      -0.834000       15.9994           0
     13802 TIP3     1        TIP3     H1       HT       0.417000       1.00800           0
     13803 TIP3     1        TIP3     H2       HT       0.417000       1.00800           0
     13804 TIP3     2        TIP3     OH2      OT      -0.834000       15.9994           0
     13805 TIP3     2        TIP3     H1       HT       0.417000       1.00800           0
     13806 TIP3     2        TIP3     H2       HT       0.417000       1.00800           0
     13807 TIP3     3        TIP3     OH2      OT      -0.834000       15.9994           0
     13808 TIP3     3        TIP3     H1       HT       0.417000       1.00800           0
     13809 TIP3     3        TIP3     H2       HT       0.417000       1.00800           0
     13810 TIP3     4        TIP3     OH2      OT      -0.834000       15.9994           0
     13811 TIP3     4        TIP3     H1       HT       0.417000       1.00800           0
     13812 TIP3     4        TIP3     H2       HT       0.417000       1.00800           0
     13813 TIP3     5        TIP3     OH2      OT      -0.834000       15.9994           0
     13814 TIP3     5        TIP3     H1       HT       0.417000       1.00800           0
     13815 TIP3     5        TIP3     H2       HT       0.417000       1.00800           0
     13816 TIP3     6        TIP3     OH2      OT      -0.834000       15.9994           0
     13817 TIP3     6        TIP3     H1       HT       0.417000       1.00800           0
     13818 TIP3     6        TIP3     H2       HT       0.417000       1.00800           0
     13819 TIP3     7        TIP3     OH2      OT      -0.834000       15.9994           0
     13820 TIP3     7        TIP3     H1       HT       0.417000       1.00800           0
     13821 TIP3     7        TIP3     H2       HT       0.417000       1.00800           0
     13822 TIP3     8        TIP3     OH2      OT      -0.834000       15.9994           0
     13823 TIP3     8        TIP3     H1       HT       0.417000       1.00800           0
     13824 TIP3     8        TIP3     H2       HT       0.417000       1.00800           0
     13825 TIP3     9        TIP3     OH2      OT      -0.834000       15.9994           0
     13826 TIP3     9        TIP3     H1       HT       0.417000       1.00800           0
     13827 TIP3     9        TIP3     H2       HT       0.417000       1.00800           0
     13828 TIP3     10       TIP3     OH2      OT      -0.834000       15.9994           0
     13829 TIP3     10       TIP3     H1       HT       0.417000       1.00800           0
     13830 TIP3     10       TIP3     H2       HT       0.417000       1.00800           0
     13831 TIP3     11       TIP3     OH2      OT      -0.834000       15.9994           0
     13832 TIP3     11       TIP3     H1       HT       0.417000       1.00800           0
     13833 TIP3     11       TIP3     H2       HT       0.417000       1.00800           0
     13834 TIP3     12       TIP3     OH2      OT      -0.834000       15.9994           0
     13835 TIP3     12       TIP3     H1       HT       0.417000       1.00800           0
     13836 TIP3     12       TIP3     H2       HT       0.417000       1.00800           0
     13837 TIP3     13       TIP3     OH2      OT      -0.834000       15.9994           0
     13838 TIP3     13       TIP3     H1       HT       0.417000       1.00800           0
     13839 TIP3     13       TIP3     H2       HT       0.417000       1.00800           0
     13840 TIP3     14       TIP3     OH2      OT      -0.834000       15.9994           0
     13841 TIP3     14       TIP3     H1       HT       0.417000       1.00800           0
     13842 TIP3     14       TIP3     H2       HT       0.417000       1.00800           0
     13843 TIP3     15       TIP3     OH2      OT      -0.834000       15.9994           0
     13844 TIP3     15       TIP3     H1       HT       0.417000       1.00800           0
     13845 TIP3     15       TIP3     H2       HT       0.417000       1.00800           0
     13846 TIP3     16       TIP3     OH2      OT      -0.834000       15.9994           0
     13847 TIP3     16       TIP3     H1       HT       0.417000       1.00800           0
     13848 TIP3     16       TIP3     H2       HT       0.417000       1.00800           0
     13849 TIP3     17       TIP3     OH2      OT      -0.834000       15.9994           0
     13850 TIP3     17       TIP3     H1       HT       0.417000       1.00800           0
     13851 TIP3     17       TIP3     H2       HT       0.417000       1.00800           0
     13852 TIP3     18       TIP3     OH2      OT      -0.834000       15.9994           0
     13853 TIP3     18       TIP3     H1       HT       0.417000       1.00800           0
     13854 TIP3     18       TIP3     H2       HT       0.417000       1.00800           0
     13855 TIP3     19       TIP3     OH2      OT      -0.834000       15.9994           0
     13856 TIP3     19       TIP3     H1       HT       0.417000       1.00800           0
     13857 TIP3     19       TIP3     H2       HT       0.417000       1.00800           0
     13858 TIP3     20       TIP3     OH2      OT      -0.834000       15.9994           0
     13859 TIP3     20       TIP3     H1       HT       0.417000       1.00800           0
     13860 TIP3     20       TIP3     H2       HT       0.417000       1.00800           0
     13861 TIP3     21       TIP3     OH2      OT      -0.834000       15.9994           0
     13862 TIP3     21       TIP3     H1       HT       0.417000       1.00800           0
     13863 TIP3     21       TIP3     H2       HT       0.417000       1.00800           0
     13864 TIP3     22       TIP3     OH2      OT      -0.834000       15.9994           0
     13865 TIP3     22       TIP3     H1       HT       0.417000       1.00800           0
     13866 TIP3     22       TIP3     H2       HT       0.417000       1.00800           0
     13867 TIP3     23       TIP3     OH2      OT      -0.834000       15.9994           0
     13868 TIP3     23       TIP3     H1       HT       0.417000       1.00800           0
     13869 TIP3     23       TIP3     H2       HT       0.417000       1.00800           0
     13870 TIP3     24       TIP3     OH2      OT      -0.834000       15.9994           0
     13871 TIP3     24       TIP3     H1       HT       0.417000       1.00800           0
     13872 TIP3     24       TIP3     H2       HT       0.417000       1.00800           0
     13873 TIP3     25       TIP3     OH2      OT      -0.834000       15.9994           0
     13874 TIP3     25       TIP3     H1       HT       0.417000       1.00800           0
     13875 TIP3     25       TIP3     H2       HT       0.417000       1.00800           0
     13876 TIP3     26       TIP3     OH2      OT      -0.834000       15.9994           0
     13877 TIP3     26       TIP3     H1       HT       0.417000       1.00800           0
     13878 TIP3     26       TIP3     H2       HT       0.417000       1.00800           0
     13879 TIP3     27       TIP3     OH2      OT      -0.834000       15.9994           0
     13880 TIP3     27       TIP3     H1       HT       0.417000       1.00800           0
     13881 TIP3     27       TIP3     H2       HT       0.417000       1.00800           0
     13882 TIP3     28       TIP3     OH2      OT      -0.834000       15.9994           0
     13883 TIP3     28       TIP3     H1       HT       0.417000       1.00800           0
     13884 TIP3     28       TIP3     H2       HT       0.417000       1.00800           0
     13885 TIP3     29       TIP3     OH2      OT      -0.834000       15.9994           0
     13886 TIP3     29       TIP3     H1       HT       0.417000       1.00800           0
     13887 TIP3     29       TIP3     H2       HT       0.417000       1.00800           0
     13888 TIP3     30       TIP3     OH2      OT      -0.834000       15.9994           0
     13889 TIP3     30       TIP3     H1       HT       0.417000       1.00800           0
     13890 TIP3     30       TIP3     H2       HT       0.417000       1.00800           0
     13891 TIP3     31       TIP3     OH2      OT      -0.834000       15.9994           0
     13892 TIP3     31       TIP3     H1       HT       0.417000       1.00800           0
     13893 TIP3     31       TIP3     H2       HT       0.417000       1.00800           0
     13894 TIP3     32       TIP3     OH2      OT      -0.834000       15.9994           0
     13895 TIP3     32       TIP3     H1       HT       0.417000       1.00800           0
     13896 TIP3     32       TIP3     H2       HT       0.417000       1.00800           0
     13897 TIP3     33       TIP3     OH2      OT      -0.834000       15.9994           0
     13898 TIP3     33       TIP3     H1       HT       0.417000       1.00800           0
     13899 TIP3     33       TIP3     H2       HT       0.417000       1.00800           0
     13900 TIP3     34       TIP3     OH2      OT      -0.834000       15.9994           0
     13901 TIP3     34       TIP3     H1       HT       0.417000       1.00800           0
     13902 TIP3     34       TIP3     H2       HT       0.417000       1.00800           0
     13903 TIP3     35       TIP3     OH2      OT      -0.834000       15.9994           0
     13904 TIP3     35       TIP3     H1       HT       0.417000       1.00800           0
     13905 TIP3     35       TIP3     H2       HT       0.417000       1.00800           0
     13906 TIP3     36       TIP3     OH2      OT      -0.834000       15.9994           0
     13907 TIP3     36       TIP3     H1       HT       0.417000       1.00800           0
     13908 TIP3     36       TIP3     H2       HT       0.417000       1.00800           0
     13909 TIP3     37       TIP3     OH2      OT      -0.834000       15.9994           0
     13910 TIP3     37       TIP3     H1       HT       0.417000       1.00800           0
     13911 TIP3     37       TIP3     H2       HT       0.417000       1.00800           0
     13912 TIP3     38       TIP3     OH2      OT      -0.834000       15.9994           0
     13913 TIP3     38       TIP3     H1       HT       0.417000       1.00800           0
     13914 TIP3     38       TIP3     H2       HT       0.417000       1.00800           0
     13915 TIP3     39       TIP3     OH2      OT      -0.834000       15.9994           0
     13916 TIP3     39       TIP3     H1       HT       0.417000       1.00800           0
     13917 TIP3     39       TIP3     H2       HT       0.417000       1.00800           0
     13918 TIP3     40       TIP3     OH2      OT      -0.834000       15.9994           0
     13919 TIP3     40       TIP3     H1       HT       0.417000       1.00800           0
     13920 TIP3     40       TIP3     H2       HT       0.417000       1.00800           0
     13921 TIP3     41       TIP3     OH2      OT      -0.834000       15.9994           0
     13922 TIP3     41       TIP3     H1       HT       0.417000       1.00800           0
     13923 TIP3     41       TIP3     H2       HT       0.417000       1.00800           0
     13924 TIP3     42       TIP3     OH2      OT      -0.834000       15.9994           0
     13925 TIP3     42       TIP3     H1       HT       0.417000       1.00800           0
     13926 TIP3     42       TIP3     H2       HT       0.417000       1.00800           0
     13927 TIP3     43       TIP3     OH2      OT      -0.834000       15.9994           0
     13928 TIP3     43       TIP3     H1       HT       0.417000       1.00800           0
     13929 TIP3     43       TIP3     H2       HT       0.417000       1.00800           0
     13930 TIP3     44       TIP3     OH2      OT      -0.834000       15.9994           0
     13931 TIP3     44       TIP3     H1       HT       0.417000       1.00800           0
     13932 TIP3     44       TIP3     H2       HT       0.417000       1.00800           0
     13933 TIP3     45       TIP3     OH2      OT      -0.834000       15.9994           0
     13934 TIP3     45       TIP3     H1       HT       0.417000       1.00800           0
     13935 TIP3     45       TIP3     H2       HT       0.417000       1.00800           0
     13936 TIP3     46       TIP3     OH2      OT      -0.834000       15.9994           0
     13937 TIP3     46       TIP3     H1       HT       0.417000       1.00800           0
     13938 TIP3     46       TIP3     H2       HT       0.417000       1.00800           0
     13939 TIP3     47       TIP3     OH2      OT      -0.834000       15.9994           0
     13940 TIP3     47       TIP3     H1       HT       0.417000       1.00800           0
     13941 TIP3     47       TIP3     H2       HT       0.417000       1.00800           0
     13942 TIP3     48       TIP3     OH2      OT      -0.834000       15.9994           0
     13943 TIP3     48       TIP3     H1       HT       0.417000       1.00800           0
     13944 TIP3     48       TIP3     H2       HT       0.417000       1.00800           0
     13945 TIP3     49       TIP3     OH2      OT      -0.834000       15.9994           0
     13946 TIP3     49       TIP3     H1       HT       0.417000       1.00800           0
     13947 TIP3     49       TIP3     H2       HT       0.417000       1.00800           0
     13948 TIP3     50       TIP3     OH2      OT      -0.834000       15.9994           0
     13949 TIP3     50       TIP3     H1       HT       0.417000       1.00800           0
     13950 TIP3     50       TIP3     H2       HT       0.417000       1.00800           0
     13951 TIP3     51       TIP3     OH2      OT      -0.834000       15.9994           0
     13952 TIP3     51       TIP3     H1       HT       0.417000       1.00800           0
     13953 TIP3     51       TIP3     H2       HT       0.417000       1.00800           0
     13954 TIP3     52       TIP3     OH2      OT      -0.834000       15.9994           0
     13955 TIP3     52       TIP3     H1       HT       0.417000       1.00800           0
     13956 TIP3     52       TIP3     H2       HT       0.417000       1.00800           0
     13957 TIP3     53       TIP3     OH2      OT      -0.834000       15.9994           0
     13958 TIP3     53       TIP3     H1       HT       0.417000       1.00800           0
     13959 TIP3     53       TIP3     H2       HT       0.417000       1.00800           0
     13960 TIP3     54       TIP3     OH2      OT      -0.834000       15.9994           0
     13961 TIP3     54       TIP3     H1       HT       0.417000       1.00800           0
     13962 TIP3     54       TIP3     H2       HT       0.417000       1.00800           0
     13963 TIP3     55       TIP3     OH2      OT      -0.834000       15.9994           0
     13964 TIP3     55       TIP3     H1       HT       0.417000       1.00800           0
     13965 TIP3     55       TIP3     H2       HT       0.417000       1.00800           0
     13966 TIP3     56       TIP3     OH2      OT      -0.834000       15.9994           0
     13967 TIP3     56       TIP3     H1       HT       0.417000       1.00800           0
     13968 TIP3     56       TIP3     H2       HT       0.417000       1.00800           0
     13969 TIP3     57       TIP3     OH2      OT      -0.834000       15.9994           0
     13970 TIP3     57       TIP3     H1       HT       0.417000       1.00800           0
     13971 TIP3     57       TIP3     H2       HT       0.417000       1.00800           0
     13972 TIP3     58       TIP3     OH2      OT      -0.834000       15.9994           0
     13973 TIP3     58       TIP3     H1       HT       0.417000       1.00800           0
     13974 TIP3     58       TIP3     H2       HT       0.417000       1.00800           0
     13975 TIP3     59       TIP3     OH2      OT      -0.834000       15.9994           0
     13976 TIP3     59       TIP3     H1       HT       0.417000       1.00800           0
     13977 TIP3     59       TIP3     H2       HT       0.417000       1.00800           0
     13978 TIP3     60       TIP3     OH2      OT      -0.834000       15.9994           0
     13979 TIP3     60       TIP3     H1       HT       0.417000       1.00800           0
     13980 TIP3     60       TIP3     H2       HT       0.417000       1.00800           0
     13981 TIP3     61       TIP3     OH2      OT      -0.834000       15.9994           0
     13982 TIP3     61       TIP3     H1       HT       0.417000       1.00800           0
     13983 TIP3     61       TIP3     H2       HT       0.417000       1.00800           0
     13984 TIP3     62       TIP3     OH2      OT      -0.834000       15.9994           0
     13985 TIP3     62       TIP3     H1       HT       0.417000       1.00800           0
     13986 TIP3     62       TIP3     H2       HT       0.417000       1.00800           0
     13987 TIP3     63       TIP3     OH2      OT      -0.834000       15.9994           0
     13988 TIP3     63       TIP3     H1       HT       0.417000       1.00800           0
     13989 TIP3     63       TIP3     H2       HT       0.417000       1.00800           0
     13990 TIP3     64       TIP3     OH2      OT      -0.834000       15.9994           0
     13991 TIP3     64       TIP3     H1       HT       0.417000       1.00800           0
     13992 TIP3     64       TIP3     H2       HT       0.417000       1.00800           0
     13993 TIP3     65       TIP3     OH2      OT      -0.834000       15.9994           0
     13994 TIP3     65       TIP3     H1       HT       0.417000       1.00800           0
     13995 TIP3     65       TIP3     H2       HT       0.417000       1.00800           0
     13996 TIP3     66       TIP3     OH2      OT      -0.834000       15.9994           0
     13997 TIP3     66       TIP3     H1       HT       0.417000       1.00800           0
     13998 TIP3     66       TIP3     H2       HT       0.417000       1.00800           0
     13999 TIP3     67       TIP3     OH2      OT      -0.834000       15.9994           0
     14000 TIP3     67       TIP3     H1       HT       0.417000       1.00800           0
     14001 TIP3     67       TIP3     H2       HT       0.417000       1.00800           0
     14002 TIP3     68       TIP3     OH2      OT      -0.834000       15.9994           0
     14003 TIP3     68       TIP3     H1       HT       0.417000       1.00800           0
     14004 TIP3     68       TIP3     H2       HT       0.417000       1.00800           0
     14005 TIP3     69       TIP3     OH2      OT      -0.834000       15.9994           0
     14006 TIP3     69       TIP3     H1       HT       0.417000       1.00800           0
     14007 TIP3     69       TIP3     H2       HT       0.417000       1.00800           0
     14008 TIP3     70       TIP3     OH2      OT      -0.834000       15.9994           0
     14009 TIP3     70       TIP3     H1       HT       0.417000       1.00800           0
     14010 TIP3     70       TIP3     H2       HT       0.417000       1.00800           0
     14011 TIP3     71       TIP3     OH2      OT      -0.834000       15.9994           0
     14012 TIP3     71       TIP3     H1       HT       0.417000       1.00800           0
     14013 TIP3     71       TIP3     H2       HT       0.417000       1.00800           0
     14014 TIP3     72       TIP3     OH2      OT      -0.834000       15.9994           0
     14015 TIP3     72       TIP3     H1       HT       0.417000       1.00800           0
     14016 TIP3     72       TIP3     H2       HT       0.417000       1.00800           0
     14017 TIP3     73       TIP3     OH2      OT      -0.834000       15.9994           0
     14018 TIP3     73       TIP3     H1       HT       0.417000       1.00800           0
     14019 TIP3     73       TIP3     H2       HT       0.417000       1.00800           0
     14020 TIP3     74       TIP3     OH2      OT      -0.834000       15.9994           0
     14021 TIP3     74       TIP3     H1       HT       0.417000       1.00800           0
     14022 TIP3     74       TIP3     H2       HT       0.417000       1.00800           0
     14023 TIP3     75       TIP3     OH2      OT      -0.834000       15.9994           0
     14024 TIP3     75       TIP3     H1       HT       0.417000       1.00800           0
     14025 TIP3     75       TIP3     H2       HT       0.417000       1.00800           0
     14026 TIP3     76       TIP3     OH2      OT      -0.834000       15.9994           0
     14027 TIP3     76       TIP3     H1       HT       0.417000       1.00800           0
     14028 TIP3     76       TIP3     H2       HT       0.417000       1.00800           0
     14029 TIP3     77       TIP3     OH2      OT      -0.834000       15.9994           0
     14030 TIP3     77       TIP3     H1       HT       0.417000       1.00800           0
     14031 TIP3     77       TIP3     H2       HT       0.417000       1.00800           0
     14032 TIP3     78       TIP3     OH2      OT      -0.834000       15.9994           0
     14033 TIP3     78       TIP3     H1       HT       0.417000       1.00800           0
     14034 TIP3     78       TIP3     H2       HT       0.417000       1.00800           0
     14035 TIP3     79       TIP3     OH2      OT      -0.834000       15.9994           0
     14036 TIP3     79       TIP3     H1       HT       0.417000       1.00800           0
     14037 TIP3     79       TIP3     H2       HT       0.417000       1.00800           0
     14038 TIP3     80       TIP3     OH2      OT      -0.834000       15.9994           0
     14039 TIP3     80       TIP3     H1       HT       0.417000       1.00800           0
     14040 TIP3     80       TIP3     H2       HT       0.417000       1.00800           0
     14041 TIP3     81       TIP3     OH2      OT      -0.834000       15.9994           0
     14042 TIP3     81       TIP3     H1       HT       0.417000       1.00800           0
     14043 TIP3     81       TIP3     H2       HT       0.417000       1.00800           0
     14044 TIP3     82       TIP3     OH2      OT      -0.834000       15.9994           0
     14045 TIP3     82       TIP3     H1       HT       0.417000       1.00800           0
     14046 TIP3     82       TIP3     H2       HT       0.417000       1.00800           0
     14047 TIP3     83       TIP3     OH2      OT      -0.834000       15.9994           0
     14048 TIP3     83       TIP3     H1       HT       0.417000       1.00800           0
     14049 TIP3     83       TIP3     H2       HT       0.417000       1.00800           0
     14050 TIP3     84       TIP3     OH2      OT      -0.834000       15.9994           0
     14051 TIP3     84       TIP3     H1       HT       0.417000       1.00800           0
     14052 TIP3     84       TIP3     H2       HT       0.417000       1.00800           0
     14053 TIP3     85       TIP3     OH2      OT      -0.834000       15.9994           0
     14054 TIP3     85       TIP3     H1       HT       0.417000       1.00800           0
     14055 TIP3     85       TIP3     H2       HT       0.417000       1.00800           0
     14056 TIP3     86       TIP3     OH2      OT      -0.834000       15.9994           0
     14057 TIP3     86       TIP3     H1       HT       0.417000       1.00800           0
     14058 TIP3     86       TIP3     H2       HT       0.417000       1.00800           0
     14059 TIP3     87       TIP3     OH2      OT      -0.834000       15.9994           0
     14060 TIP3     87       TIP3     H1       HT       0.417000       1.00800           0
     14061 TIP3     87       TIP3     H2       HT       0.417000       1.00800           0
     14062 TIP3     88       TIP3     OH2      OT      -0.834000       15.9994           0
     14063 TIP3     88       TIP3     H1       HT       0.417000       1.00800           0
     14064 TIP3     88       TIP3     H2       HT       0.417000       1.00800           0
     14065 TIP3     89       TIP3     OH2      OT      -0.834000       15.9994           0
     14066 TIP3     89       TIP3     H1       HT       0.417000       1.00800           0
     14067 TIP3     89       TIP3     H2       HT       0.417000       1.00800           0
     14068 TIP3     90       TIP3     OH2      OT      -0.834000       15.9994           0
     14069 TIP3     90       TIP3     H1       HT       0.417000       1.00800           0
     14070 TIP3     90       TIP3     H2       HT       0.417000       1.00800           0
     14071 TIP3     91       TIP3     OH2      OT      -0.834000       15.9994           0
     14072 TIP3     91       TIP3     H1       HT       0.417000       1.00800           0
     14073 TIP3     91       TIP3     H2       HT       0.417000       1.00800           0
     14074 TIP3     92       TIP3     OH2      OT      -0.834000       15.9994           0
     14075 TIP3     92       TIP3     H1       HT       0.417000       1.00800           0
     14076 TIP3     92       TIP3     H2       HT       0.417000       1.00800           0
     14077 TIP3     93       TIP3     OH2      OT      -0.834000       15.9994           0
     14078 TIP3     93       TIP3     H1       HT       0.417000       1.00800           0
     14079 TIP3     93       TIP3     H2       HT       0.417000       1.00800           0
     14080 TIP3     94       TIP3     OH2      OT      -0.834000       15.9994           0
     14081 TIP3     94       TIP3     H1       HT       0.417000       1.00800           0
     14082 TIP3     94       TIP3     H2       HT       0.417000       1.00800           0
     14083 TIP3     95       TIP3     OH2      OT      -0.834000       15.9994           0
     14084 TIP3     95       TIP3     H1       HT       0.417000       1.00800           0
     14085 TIP3     95       TIP3     H2       HT       0.417000       1.00800           0
     14086 TIP3     96       TIP3     OH2      OT      -0.834000       15.9994           0
     14087 TIP3     96       TIP3     H1       HT       0.417000       1.00800           0
     14088 TIP3     96       TIP3     H2       HT       0.417000       1.00800           0
     14089 TIP3     97       TIP3     OH2      OT      -0.834000       15.9994           0
     14090 TIP3     97       TIP3     H1       HT       0.417000       1.00800           0
     14091 TIP3     97       TIP3     H2       HT       0.417000       1.00800           0
     14092 TIP3     98       TIP3     OH2      OT      -0.834000       15.9994           0
     14093 TIP3     98       TIP3     H1       HT       0.417000       1.00800           0
     14094 TIP3     98       TIP3     H2       HT       0.417000       1.00800           0
     14095 TIP3     99       TIP3     OH2      OT      -0.834000       15.9994           0
     14096 TIP3     99       TIP3     H1       HT       0.417000       1.00800           0
     14097 TIP3     99       TIP3     H2       HT       0.417000       1.00800           0
     14098 TIP3     100      TIP3     OH2      OT      -0.834000       15.9994           0
     14099 TIP3     100      TIP3     H1       HT       0.417000       1.00800           0
     14100 TIP3     100      TIP3     H2       HT       0.417000       1.00800           0
     14101 TIP3     101      TIP3     OH2      OT      -0.834000       15.9994           0
     14102 TIP3     101      TIP3     H1       HT       0.417000       1.00800           0
     14103 TIP3     101      TIP3     H2       HT       0.417000       1.00800           0
     14104 TIP3     102      TIP3     OH2      OT      -0.834000       15.9994           0
     14105 TIP3     102      TIP3     H1       HT       0.417000       1.00800           0
     14106 TIP3     102      TIP3     H2       HT       0.417000       1.00800           0
     14107 TIP3     103      TIP3     OH2      OT      -0.834000       15.9994           0
     14108 TIP3     103      TIP3     H1       HT       0.417000       1.00800           0
     14109 TIP3     103      TIP3     H2       HT       0.417000       1.00800           0
     14110 TIP3     104      TIP3     OH2      OT      -0.834000       15.9994           0
     14111 TIP3     104      TIP3     H1       HT       0.417000       1.00800           0
     14112 TIP3     104      TIP3     H2       HT       0.417000       1.00800           0
     14113 TIP3     105      TIP3     OH2      OT      -0.834000       15.9994           0
     14114 TIP3     105      TIP3     H1       HT       0.417000       1.00800           0
     14115 TIP3     105      TIP3     H2       HT       0.417000       1.00800           0
     14116 TIP3     106      TIP3     OH2      OT      -0.834000       15.9994           0
     14117 TIP3     106      TIP3     H1       HT       0.417000       1.00800           0
     14118 TIP3     106      TIP3     H2       HT       0.417000       1.00800           0
     14119 TIP3     107      TIP3     OH2      OT      -0.834000       15.9994           0
     14120 TIP3     107      TIP3     H1       HT       0.417000       1.00800           0
     14121 TIP3     107      TIP3     H2       HT       0.417000       1.00800           0
     14122 TIP3     108      TIP3     OH2      OT      -0.834000       15.9994           0
     14123 TIP3     108      TIP3     H1       HT       0.417000       1.00800           0
     14124 TIP3     108      TIP3     H2       HT       0.417000       1.00800           0
     14125 TIP3     109      TIP3     OH2      OT      -0.834000       15.9994           0
     14126 TIP3     109      TIP3     H1       HT       0.417000       1.00800           0
     14127 TIP3     109      TIP3     H2       HT       0.417000       1.00800           0
     14128 TIP3     110      TIP3     OH2      OT      -0.834000       15.9994           0
     14129 TIP3     110      TIP3     H1       HT       0.417000       1.00800           0
     14130 TIP3     110      TIP3     H2       HT       0.417000       1.00800           0
     14131 TIP3     111      TIP3     OH2      OT      -0.834000       15.9994           0
     14132 TIP3     111      TIP3     H1       HT       0.417000       1.00800           0
     14133 TIP3     111      TIP3     H2       HT       0.417000       1.00800           0
     14134 TIP3     112      TIP3     OH2      OT      -0.834000       15.9994           0
     14135 TIP3     112      TIP3     H1       HT       0.417000       1.00800           0
     14136 TIP3     112      TIP3     H2       HT       0.417000       1.00800           0
     14137 TIP3     113      TIP3     OH2      OT      -0.834000       15.9994           0
     14138 TIP3     113      TIP3     H1       HT       0.417000       1.00800           0
     14139 TIP3     113      TIP3     H2       HT       0.417000       1.00800           0
     14140 TIP3     114      TIP3     OH2      OT      -0.834000       15.9994           0
     14141 TIP3     114      TIP3     H1       HT       0.417000       1.00800           0
     14142 TIP3     114      TIP3     H2       HT       0.417000       1.00800           0
     14143 TIP3     115      TIP3     OH2      OT      -0.834000       15.9994           0
     14144 TIP3     115      TIP3     H1       HT       0.417000       1.00800           0
     14145 TIP3     115      TIP3     H2       HT       0.417000       1.00800           0
     14146 TIP3     116      TIP3     OH2      OT      -0.834000       15.9994           0
     14147 TIP3     116      TIP3     H1       HT       0.417000       1.00800           0
     14148 TIP3     116      TIP3     H2       HT       0.417000       1.00800           0
     14149 TIP3     117      TIP3     OH2      OT      -0.834000       15.9994           0
     14150 TIP3     117      TIP3     H1       HT       0.417000       1.00800           0
     14151 TIP3     117      TIP3     H2       HT       0.417000       1.00800           0
     14152 TIP3     118      TIP3     OH2      OT      -0.834000       15.9994           0
     14153 TIP3     118      TIP3     H1       HT       0.417000       1.00800           0
     14154 TIP3     118      TIP3     H2       HT       0.417000       1.00800           0
     14155 TIP3     119      TIP3     OH2      OT      -0.834000       15.9994           0
     14156 TIP3     119      TIP3     H1       HT       0.417000       1.00800           0
     14157 TIP3     119      TIP3     H2       HT       0.417000       1.00800           0
     14158 TIP3     120      TIP3     OH2      OT      -0.834000       15.9994           0
     14159 TIP3     120      TIP3     H1       HT       0.417000       1.00800           0
     14160 TIP3     120      TIP3     H2       HT       0.417000       1.00800           0
     14161 TIP3     121      TIP3     OH2      OT      -0.834000       15.9994           0
     14162 TIP3     121      TIP3     H1       HT       0.417000       1.00800           0
     14163 TIP3     121      TIP3     H2       HT       0.417000       1.00800           0
     14164 TIP3     122      TIP3     OH2      OT      -0.834000       15.9994           0
     14165 TIP3     122      TIP3     H1       HT       0.417000       1.00800           0
     14166 TIP3     122      TIP3     H2       HT       0.417000       1.00800           0
     14167 TIP3     123      TIP3     OH2      OT      -0.834000       15.9994           0
     14168 TIP3     123      TIP3     H1       HT       0.417000       1.00800           0
     14169 TIP3     123      TIP3     H2       HT       0.417000       1.00800           0
     14170 TIP3     124      TIP3     OH2      OT      -0.834000       15.9994           0
     14171 TIP3     124      TIP3     H1       HT       0.417000       1.00800           0
     14172 TIP3     124      TIP3     H2       HT       0.417000       1.00800           0
     14173 TIP3     125      TIP3     OH2      OT      -0.834000       15.9994           0
     14174 TIP3     125      TIP3     H1       HT       0.417000       1.00800           0
     14175 TIP3     125      TIP3     H2       HT       0.417000       1.00800           0
     14176 TIP3     126      TIP3     OH2      OT      -0.834000       15.9994           0
     14177 TIP3     126      TIP3     H1       HT       0.417000       1.00800           0
     14178 TIP3     126      TIP3     H2       HT       0.417000       1.00800           0
     14179 TIP3     127      TIP3     OH2      OT      -0.834000       15.9994           0
     14180 TIP3     127      TIP3     H1       HT       0.417000       1.00800           0
     14181 TIP3     127      TIP3     H2       HT       0.417000       1.00800           0
     14182 TIP3     128      TIP3     OH2      OT      -0.834000       15.9994           0
     14183 TIP3     128      TIP3     H1       HT       0.417000       1.00800           0
     14184 TIP3     128      TIP3     H2       HT       0.417000       1.00800           0
     14185 TIP3     129      TIP3     OH2      OT      -0.834000       15.9994           0
     14186 TIP3     129      TIP3     H1       HT       0.417000       1.00800           0
     14187 TIP3     129      TIP3     H2       HT       0.417000       1.00800           0
     14188 TIP3     130      TIP3     OH2      OT      -0.834000       15.9994           0
     14189 TIP3     130      TIP3     H1       HT       0.417000       1.00800           0
     14190 TIP3     130      TIP3     H2       HT       0.417000       1.00800           0
     14191 TIP3     131      TIP3     OH2      OT      -0.834000       15.9994           0
     14192 TIP3     131      TIP3     H1       HT       0.417000       1.00800           0
     14193 TIP3     131      TIP3     H2       HT       0.417000       1.00800           0
     14194 TIP3     132      TIP3     OH2      OT      -0.834000       15.9994           0
     14195 TIP3     132      TIP3     H1       HT       0.417000       1.00800           0
     14196 TIP3     132      TIP3     H2       HT       0.417000       1.00800           0
     14197 TIP3     133      TIP3     OH2      OT      -0.834000       15.9994           0
     14198 TIP3     133      TIP3     H1       HT       0.417000       1.00800           0
     14199 TIP3     133      TIP3     H2       HT       0.417000       1.00800           0
     14200 TIP3     134      TIP3     OH2      OT      -0.834000       15.9994           0
     14201 TIP3     134      TIP3     H1       HT       0.417000       1.00800           0
     14202 TIP3     134      TIP3     H2       HT       0.417000       1.00800           0
     14203 TIP3     135      TIP3     OH2      OT      -0.834000       15.9994           0
     14204 TIP3     135      TIP3     H1       HT       0.417000       1.00800           0
     14205 TIP3     135      TIP3     H2       HT       0.417000       1.00800           0
     14206 TIP3     136      TIP3     OH2      OT      -0.834000       15.9994           0
     14207 TIP3     136      TIP3     H1       HT       0.417000       1.00800           0
     14208 TIP3     136      TIP3     H2       HT       0.417000       1.00800           0
     14209 TIP3     137      TIP3     OH2      OT      -0.834000       15.9994           0
     14210 TIP3     137      TIP3     H1       HT       0.417000       1.00800           0
     14211 TIP3     137      TIP3     H2       HT       0.417000       1.00800           0
     14212 TIP3     138      TIP3     OH2      OT      -0.834000       15.9994           0
     14213 TIP3     138      TIP3     H1       HT       0.417000       1.00800           0
     14214 TIP3     138      TIP3     H2       HT       0.417000       1.00800           0
     14215 TIP3     139      TIP3     OH2      OT      -0.834000       15.9994           0
     14216 TIP3     139      TIP3     H1       HT       0.417000       1.00800           0
     14217 TIP3     139      TIP3     H2       HT       0.417000       1.00800           0
     14218 TIP3     140      TIP3     OH2      OT      -0.834000       15.9994           0
     14219 TIP3     140      TIP3     H1       HT       0.417000       1.00800           0
     14220 TIP3     140      TIP3     H2       HT       0.417000       1.00800           0
     14221 TIP3     141      TIP3     OH2      OT      -0.834000       15.9994           0
     14222 TIP3     141      TIP3     H1       HT       0.417000       1.00800           0
     14223 TIP3     141      TIP3     H2       HT       0.417000       1.00800           0
     14224 TIP3     142      TIP3     OH2      OT      -0.834000       15.9994           0
     14225 TIP3     142      TIP3     H1       HT       0.417000       1.00800           0
     14226 TIP3     142      TIP3     H2       HT       0.417000       1.00800           0
     14227 TIP3     143      TIP3     OH2      OT      -0.834000       15.9994           0
     14228 TIP3     143      TIP3     H1       HT       0.417000       1.00800           0
     14229 TIP3     143      TIP3     H2       HT       0.417000       1.00800           0
     14230 TIP3     144      TIP3     OH2      OT      -0.834000       15.9994           0
     14231 TIP3     144      TIP3     H1       HT       0.417000       1.00800           0
     14232 TIP3     144      TIP3     H2       HT       0.417000       1.00800           0
     14233 TIP3     145      TIP3     OH2      OT      -0.834000       15.9994           0
     14234 TIP3     145      TIP3     H1       HT       0.417000       1.00800           0
     14235 TIP3     145      TIP3     H2       HT       0.417000       1.00800           0
     14236 TIP3     146      TIP3     OH2      OT      -0.834000       15.9994           0
     14237 TIP3     146      TIP3     H1       HT       0.417000       1.00800           0
     14238 TIP3     146      TIP3     H2       HT       0.417000       1.00800           0
     14239 TIP3     147      TIP3     OH2      OT      -0.834000       15.9994           0
     14240 TIP3     147      TIP3     H1       HT       0.417000       1.00800           0
     14241 TIP3     147      TIP3     H2       HT       0.417000       1.00800           0
     14242 TIP3     148      TIP3     OH2      OT      -0.834000       15.9994           0
     14243 TIP3     148      TIP3     H1       HT       0.417000       1.00800           0
     14244 TIP3     148      TIP3     H2       HT       0.417000       1.00800           0
     14245 TIP3     149      TIP3     OH2      OT      -0.834000       15.9994           0
     14246 TIP3     149      TIP3     H1       HT       0.417000       1.00800           0
     14247 TIP3     149      TIP3     H2       HT       0.417000       1.00800           0
     14248 TIP3     150      TIP3     OH2      OT      -0.834000       15.9994           0
     14249 TIP3     150      TIP3     H1       HT       0.417000       1.00800           0
     14250 TIP3     150      TIP3     H2       HT       0.417000       1.00800           0
     14251 TIP3     151      TIP3     OH2      OT      -0.834000       15.9994           0
     14252 TIP3     151      TIP3     H1       HT       0.417000       1.00800           0
     14253 TIP3     151      TIP3     H2       HT       0.417000       1.00800           0
     14254 TIP3     152      TIP3     OH2      OT      -0.834000       15.9994           0
     14255 TIP3     152      TIP3     H1       HT       0.417000       1.00800           0
     14256 TIP3     152      TIP3     H2       HT       0.417000       1.00800           0
     14257 TIP3     153      TIP3     OH2      OT      -0.834000       15.9994           0
     14258 TIP3     153      TIP3     H1       HT       0.417000       1.00800           0
     14259 TIP3     153      TIP3     H2       HT       0.417000       1.00800           0
     14260 TIP3     154      TIP3     OH2      OT      -0.834000       15.9994           0
     14261 TIP3     154      TIP3     H1       HT       0.417000       1.00800           0
     14262 TIP3     154      TIP3     H2       HT       0.417000       1.00800           0
     14263 TIP3     155      TIP3     OH2      OT      -0.834000       15.9994           0
     14264 TIP3     155      TIP3     H1       HT       0.417000       1.00800           0
     14265 TIP3     155      TIP3     H2       HT       0.417000       1.00800           0
     14266 TIP3     156      TIP3     OH2      OT      -0.834000       15.9994           0
     14267 TIP3     156      TIP3     H1       HT       0.417000       1.00800           0
     14268 TIP3     156      TIP3     H2       HT       0.417000       1.00800           0
     14269 TIP3     157      TIP3     OH2      OT      -0.834000       15.9994           0
     14270 TIP3     157      TIP3     H1       HT       0.417000       1.00800           0
     14271 TIP3     157      TIP3     H2       HT       0.417000       1.00800           0
     14272 TIP3     158      TIP3     OH2      OT      -0.834000       15.9994           0
     14273 TIP3     158      TIP3     H1       HT       0.417000       1.00800           0
     14274 TIP3     158      TIP3     H2       HT       0.417000       1.00800           0
     14275 TIP3     159      TIP3     OH2      OT      -0.834000       15.9994           0
     14276 TIP3     159      TIP3     H1       HT       0.417000       1.00800           0
     14277 TIP3     159      TIP3     H2       HT       0.417000       1.00800           0
     14278 TIP3     160      TIP3     OH2      OT      -0.834000       15.9994           0
     14279 TIP3     160      TIP3     H1       HT       0.417000       1.00800           0
     14280 TIP3     160      TIP3     H2       HT       0.417000       1.00800           0
     14281 TIP3     161      TIP3     OH2      OT      -0.834000       15.9994           0
     14282 TIP3     161      TIP3     H1       HT       0.417000       1.00800           0
     14283 TIP3     161      TIP3     H2       HT       0.417000       1.00800           0
     14284 TIP3     162      TIP3     OH2      OT      -0.834000       15.9994           0
     14285 TIP3     162      TIP3     H1       HT       0.417000       1.00800           0
     14286 TIP3     162      TIP3     H2       HT       0.417000       1.00800           0
     14287 TIP3     163      TIP3     OH2      OT      -0.834000       15.9994           0
     14288 TIP3     163      TIP3     H1       HT       0.417000       1.00800           0
     14289 TIP3     163      TIP3     H2       HT       0.417000       1.00800           0
     14290 TIP3     164      TIP3     OH2      OT      -0.834000       15.9994           0
     14291 TIP3     164      TIP3     H1       HT       0.417000       1.00800           0
     14292 TIP3     164      TIP3     H2       HT       0.417000       1.00800           0
     14293 TIP3     165      TIP3     OH2      OT      -0.834000       15.9994           0
     14294 TIP3     165      TIP3     H1       HT       0.417000       1.00800           0
     14295 TIP3     165      TIP3     H2       HT       0.417000       1.00800           0
     14296 TIP3     166      TIP3     OH2      OT      -0.834000       15.9994           0
     14297 TIP3     166      TIP3     H1       HT       0.417000       1.00800           0
     14298 TIP3     166      TIP3     H2       HT       0.417000       1.00800           0
     14299 TIP3     167      TIP3     OH2      OT      -0.834000       15.9994           0
     14300 TIP3     167      TIP3     H1       HT       0.417000       1.00800           0
     14301 TIP3     167      TIP3     H2       HT       0.417000       1.00800           0
     14302 TIP3     168      TIP3     OH2      OT      -0.834000       15.9994           0
     14303 TIP3     168      TIP3     H1       HT       0.417000       1.00800           0
     14304 TIP3     168      TIP3     H2       HT       0.417000       1.00800           0
     14305 TIP3     169      TIP3     OH2      OT      -0.834000       15.9994           0
     14306 TIP3     169      TIP3     H1       HT       0.417000       1.00800           0
     14307 TIP3     169      TIP3     H2       HT       0.417000       1.00800           0
     14308 TIP3     170      TIP3     OH2      OT      -0.834000       15.9994           0
     14309 TIP3     170      TIP3     H1       HT       0.417000       1.00800           0
     14310 TIP3     170      TIP3     H2       HT       0.417000       1.00800           0
     14311 TIP3     171      TIP3     OH2      OT      -0.834000       15.9994           0
     14312 TIP3     171      TIP3     H1       HT       0.417000       1.00800           0
     14313 TIP3     171      TIP3     H2       HT       0.417000       1.00800           0
     14314 TIP3     172      TIP3     OH2      OT      -0.834000       15.9994           0
     14315 TIP3     172      TIP3     H1       HT       0.417000       1.00800           0
     14316 TIP3     172      TIP3     H2       HT       0.417000       1.00800           0
     14317 TIP3     173      TIP3     OH2      OT      -0.834000       15.9994           0
     14318 TIP3     173      TIP3     H1       HT       0.417000       1.00800           0
     14319 TIP3     173      TIP3     H2       HT       0.417000       1.00800           0
     14320 TIP3     174      TIP3     OH2      OT      -0.834000       15.9994           0
     14321 TIP3     174      TIP3     H1       HT       0.417000       1.00800           0
     14322 TIP3     174      TIP3     H2       HT       0.417000       1.00800           0
     14323 TIP3     175      TIP3     OH2      OT      -0.834000       15.9994           0
     14324 TIP3     175      TIP3     H1       HT       0.417000       1.00800           0
     14325 TIP3     175      TIP3     H2       HT       0.417000       1.00800           0
     14326 TIP3     176      TIP3     OH2      OT      -0.834000       15.9994           0
     14327 TIP3     176      TIP3     H1       HT       0.417000       1.00800           0
     14328 TIP3     176      TIP3     H2       HT       0.417000       1.00800           0
     14329 TIP3     177      TIP3     OH2      OT      -0.834000       15.9994           0
     14330 TIP3     177      TIP3     H1       HT       0.417000       1.00800           0
     14331 TIP3     177      TIP3     H2       HT       0.417000       1.00800           0
     14332 TIP3     178      TIP3     OH2      OT      -0.834000       15.9994           0
     14333 TIP3     178      TIP3     H1       HT       0.417000       1.00800           0
     14334 TIP3     178      TIP3     H2       HT       0.417000       1.00800           0
     14335 TIP3     179      TIP3     OH2      OT      -0.834000       15.9994           0
     14336 TIP3     179      TIP3     H1       HT       0.417000       1.00800           0
     14337 TIP3     179      TIP3     H2       HT       0.417000       1.00800           0
     14338 TIP3     180      TIP3     OH2      OT      -0.834000       15.9994           0
     14339 TIP3     180      TIP3     H1       HT       0.417000       1.00800           0
     14340 TIP3     180      TIP3     H2       HT       0.417000       1.00800           0
     14341 TIP3     181      TIP3     OH2      OT      -0.834000       15.9994           0
     14342 TIP3     181      TIP3     H1       HT       0.417000       1.00800           0
     14343 TIP3     181      TIP3     H2       HT       0.417000       1.00800           0
     14344 TIP3     182      TIP3     OH2      OT      -0.834000       15.9994           0
     14345 TIP3     182      TIP3     H1       HT       0.417000       1.00800           0
     14346 TIP3     182      TIP3     H2       HT       0.417000       1.00800           0
     14347 TIP3     183      TIP3     OH2      OT      -0.834000       15.9994           0
     14348 TIP3     183      TIP3     H1       HT       0.417000       1.00800           0
     14349 TIP3     183      TIP3     H2       HT       0.417000       1.00800           0
     14350 TIP3     184      TIP3     OH2      OT      -0.834000       15.9994           0
     14351 TIP3     184      TIP3     H1       HT       0.417000       1.00800           0
     14352 TIP3     184      TIP3     H2       HT       0.417000       1.00800           0
     14353 TIP3     185      TIP3     OH2      OT      -0.834000       15.9994           0
     14354 TIP3     185      TIP3     H1       HT       0.417000       1.00800           0
     14355 TIP3     185      TIP3     H2       HT       0.417000       1.00800           0
     14356 TIP3     186      TIP3     OH2      OT      -0.834000       15.9994           0
     14357 TIP3     186      TIP3     H1       HT       0.417000       1.00800           0
     14358 TIP3     186      TIP3     H2       HT       0.417000       1.00800           0
     14359 TIP3     187      TIP3     OH2      OT      -0.834000       15.9994           0
     14360 TIP3     187      TIP3     H1       HT       0.417000       1.00800           0
     14361 TIP3     187      TIP3     H2       HT       0.417000       1.00800           0
     14362 TIP3     188      TIP3     OH2      OT      -0.834000       15.9994           0
     14363 TIP3     188      TIP3     H1       HT       0.417000       1.00800           0
     14364 TIP3     188      TIP3     H2       HT       0.417000       1.00800           0
     14365 TIP3     189      TIP3     OH2      OT      -0.834000       15.9994           0
     14366 TIP3     189      TIP3     H1       HT       0.417000       1.00800           0
     14367 TIP3     189      TIP3     H2       HT       0.417000       1.00800           0
     14368 TIP3     190      TIP3     OH2      OT      -0.834000       15.9994           0
     14369 TIP3     190      TIP3     H1       HT       0.417000       1.00800           0
     14370 TIP3     190      TIP3     H2       HT       0.417000       1.00800           0
     14371 TIP3     191      TIP3     OH2      OT      -0.834000       15.9994           0
     14372 TIP3     191      TIP3     H1       HT       0.417000       1.00800           0
     14373 TIP3     191      TIP3     H2       HT       0.417000       1.00800           0
     14374 TIP3     192      TIP3     OH2      OT      -0.834000       15.9994           0
     14375 TIP3     192      TIP3     H1       HT       0.417000       1.00800           0
     14376 TIP3     192      TIP3     H2       HT       0.417000       1.00800           0
     14377 TIP3     193      TIP3     OH2      OT      -0.834000       15.9994           0
     14378 TIP3     193      TIP3     H1       HT       0.417000       1.00800           0
     14379 TIP3     193      TIP3     H2       HT       0.417000       1.00800           0
     14380 TIP3     194      TIP3     OH2      OT      -0.834000       15.9994           0
     14381 TIP3     194      TIP3     H1       HT       0.417000       1.00800           0
     14382 TIP3     194      TIP3     H2       HT       0.417000       1.00800           0
     14383 TIP3     195      TIP3     OH2      OT      -0.834000       15.9994           0
     14384 TIP3     195      TIP3     H1       HT       0.417000       1.00800           0
     14385 TIP3     195      TIP3     H2       HT       0.417000       1.00800           0
     14386 TIP3     196      TIP3     OH2      OT      -0.834000       15.9994           0
     14387 TIP3     196      TIP3     H1       HT       0.417000       1.00800           0
     14388 TIP3     196      TIP3     H2       HT       0.417000       1.00800           0
     14389 TIP3     197      TIP3     OH2      OT      -0.834000       15.9994           0
     14390 TIP3     197      TIP3     H1       HT       0.417000       1.00800           0
     14391 TIP3     197      TIP3     H2       HT       0.417000       1.00800           0
     14392 TIP3     198      TIP3     OH2      OT      -0.834000       15.9994           0
     14393 TIP3     198      TIP3     H1       HT       0.417000       1.00800           0
     14394 TIP3     198      TIP3     H2       HT       0.417000       1.00800           0
     14395 TIP3     199      TIP3     OH2      OT      -0.834000       15.9994           0
     14396 TIP3     199      TIP3     H1       HT       0.417000       1.00800           0
     14397 TIP3     199      TIP3     H2       HT       0.417000       1.00800           0
     14398 TIP3     200      TIP3     OH2      OT      -0.834000       15.9994           0
     14399 TIP3     200      TIP3     H1       HT       0.417000       1.00800           0
     14400 TIP3     200      TIP3     H2       HT       0.417000       1.00800           0
     14401 TIP3     201      TIP3     OH2      OT      -0.834000       15.9994           0
     14402 TIP3     201      TIP3     H1       HT       0.417000       1.00800           0
     14403 TIP3     201      TIP3     H2       HT       0.417000       1.00800           0
     14404 TIP3     202      TIP3     OH2      OT      -0.834000       15.9994           0
     14405 TIP3     202      TIP3     H1       HT       0.417000       1.00800           0
     14406 TIP3     202      TIP3     H2       HT       0.417000       1.00800           0
     14407 TIP3     203      TIP3     OH2      OT      -0.834000       15.9994           0
     14408 TIP3     203      TIP3     H1       HT       0.417000       1.00800           0
     14409 TIP3     203      TIP3     H2       HT       0.417000       1.00800           0
     14410 TIP3     204      TIP3     OH2      OT      -0.834000       15.9994           0
     14411 TIP3     204      TIP3     H1       HT       0.417000       1.00800           0
     14412 TIP3     204      TIP3     H2       HT       0.417000       1.00800           0
     14413 TIP3     205      TIP3     OH2      OT      -0.834000       15.9994           0
     14414 TIP3     205      TIP3     H1       HT       0.417000       1.00800           0
     14415 TIP3     205      TIP3     H2       HT       0.417000       1.00800           0
     14416 TIP3     206      TIP3     OH2      OT      -0.834000       15.9994           0
     14417 TIP3     206      TIP3     H1       HT       0.417000       1.00800           0
     14418 TIP3     206      TIP3     H2       HT       0.417000       1.00800           0
     14419 TIP3     207      TIP3     OH2      OT      -0.834000       15.9994           0
     14420 TIP3     207      TIP3     H1       HT       0.417000       1.00800           0
     14421 TIP3     207      TIP3     H2       HT       0.417000       1.00800           0
     14422 TIP3     208      TIP3     OH2      OT      -0.834000       15.9994           0
     14423 TIP3     208      TIP3     H1       HT       0.417000       1.00800           0
     14424 TIP3     208      TIP3     H2       HT       0.417000       1.00800           0
     14425 TIP3     209      TIP3     OH2      OT      -0.834000       15.9994           0
     14426 TIP3     209      TIP3     H1       HT       0.417000       1.00800           0
     14427 TIP3     209      TIP3     H2       HT       0.417000       1.00800           0
     14428 TIP3     210      TIP3     OH2      OT      -0.834000       15.9994           0
     14429 TIP3     210      TIP3     H1       HT       0.417000       1.00800           0
     14430 TIP3     210      TIP3     H2       HT       0.417000       1.00800           0
     14431 TIP3     211      TIP3     OH2      OT      -0.834000       15.9994           0
     14432 TIP3     211      TIP3     H1       HT       0.417000       1.00800           0
     14433 TIP3     211      TIP3     H2       HT       0.417000       1.00800           0
     14434 TIP3     212      TIP3     OH2      OT      -0.834000       15.9994           0
     14435 TIP3     212      TIP3     H1       HT       0.417000       1.00800           0
     14436 TIP3     212      TIP3     H2       HT       0.417000       1.00800           0
     14437 TIP3     213      TIP3     OH2      OT      -0.834000       15.9994           0
     14438 TIP3     213      TIP3     H1       HT       0.417000       1.00800           0
     14439 TIP3     213      TIP3     H2       HT       0.417000       1.00800           0
     14440 TIP3     214      TIP3     OH2      OT      -0.834000       15.9994           0
     14441 TIP3     214      TIP3     H1       HT       0.417000       1.00800           0
     14442 TIP3     214      TIP3     H2       HT       0.417000       1.00800           0
     14443 TIP3     215      TIP3     OH2      OT      -0.834000       15.9994           0
     14444 TIP3     215      TIP3     H1       HT       0.417000       1.00800           0
     14445 TIP3     215      TIP3     H2       HT       0.417000       1.00800           0
     14446 TIP3     216      TIP3     OH2      OT      -0.834000       15.9994           0
     14447 TIP3     216      TIP3     H1       HT       0.417000       1.00800           0
     14448 TIP3     216      TIP3     H2       HT       0.417000       1.00800           0
     14449 TIP3     217      TIP3     OH2      OT      -0.834000       15.9994           0
     14450 TIP3     217      TIP3     H1       HT       0.417000       1.00800           0
     14451 TIP3     217      TIP3     H2       HT       0.417000       1.00800           0
     14452 TIP3     218      TIP3     OH2      OT      -0.834000       15.9994           0
     14453 TIP3     218      TIP3     H1       HT       0.417000       1.00800           0
     14454 TIP3     218      TIP3     H2       HT       0.417000       1.00800           0
     14455 TIP3     219      TIP3     OH2      OT      -0.834000       15.9994           0
     14456 TIP3     219      TIP3     H1       HT       0.417000       1.00800           0
     14457 TIP3     219      TIP3     H2       HT       0.417000       1.00800           0
     14458 TIP3     220      TIP3     OH2      OT      -0.834000       15.9994           0
     14459 TIP3     220      TIP3     H1       HT       0.417000       1.00800           0
     14460 TIP3     220      TIP3     H2       HT       0.417000       1.00800           0
     14461 TIP3     221      TIP3     OH2      OT      -0.834000       15.9994           0
     14462 TIP3     221      TIP3     H1       HT       0.417000       1.00800           0
     14463 TIP3     221      TIP3     H2       HT       0.417000       1.00800           0
     14464 TIP3     222      TIP3     OH2      OT      -0.834000       15.9994           0
     14465 TIP3     222      TIP3     H1       HT       0.417000       1.00800           0
     14466 TIP3     222      TIP3     H2       HT       0.417000       1.00800           0
     14467 TIP3     223      TIP3     OH2      OT      -0.834000       15.9994           0
     14468 TIP3     223      TIP3     H1       HT       0.417000       1.00800           0
     14469 TIP3     223      TIP3     H2       HT       0.417000       1.00800           0
     14470 TIP3     224      TIP3     OH2      OT      -0.834000       15.9994           0
     14471 TIP3     224      TIP3     H1       HT       0.417000       1.00800           0
     14472 TIP3     224      TIP3     H2       HT       0.417000       1.00800           0
     14473 TIP3     225      TIP3     OH2      OT      -0.834000       15.9994           0
     14474 TIP3     225      TIP3     H1       HT       0.417000       1.00800           0
     14475 TIP3     225      TIP3     H2       HT       0.417000       1.00800           0
     14476 TIP3     226      TIP3     OH2      OT      -0.834000       15.9994           0
     14477 TIP3     226      TIP3     H1       HT       0.417000       1.00800           0
     14478 TIP3     226      TIP3     H2       HT       0.417000       1.00800           0
     14479 TIP3     227      TIP3     OH2      OT      -0.834000       15.9994           0
     14480 TIP3     227      TIP3     H1       HT       0.417000       1.00800           0
     14481 TIP3     227      TIP3     H2       HT       0.417000       1.00800           0
     14482 TIP3     228      TIP3     OH2      OT      -0.834000       15.9994           0
     14483 TIP3     228      TIP3     H1       HT       0.417000       1.00800           0
     14484 TIP3     228      TIP3     H2       HT       0.417000       1.00800           0
     14485 TIP3     229      TIP3     OH2      OT      -0.834000       15.9994           0
     14486 TIP3     229      TIP3     H1       HT       0.417000       1.00800           0
     14487 TIP3     229      TIP3     H2       HT       0.417000       1.00800           0
     14488 TIP3     230      TIP3     OH2      OT      -0.834000       15.9994           0
     14489 TIP3     230      TIP3     H1       HT       0.417000       1.00800           0
     14490 TIP3     230      TIP3     H2       HT       0.417000       1.00800           0
     14491 TIP3     231      TIP3     OH2      OT      -0.834000       15.9994           0
     14492 TIP3     231      TIP3     H1       HT       0.417000       1.00800           0
     14493 TIP3     231      TIP3     H2       HT       0.417000       1.00800           0
     14494 TIP3     232      TIP3     OH2      OT      -0.834000       15.9994           0
     14495 TIP3     232      TIP3     H1       HT       0.417000       1.00800           0
     14496 TIP3     232      TIP3     H2       HT       0.417000       1.00800           0
     14497 TIP3     233      TIP3     OH2      OT      -0.834000       15.9994           0
     14498 TIP3     233      TIP3     H1       HT       0.417000       1.00800           0
     14499 TIP3     233      TIP3     H2       HT       0.417000       1.00800           0
     14500 TIP3     234      TIP3     OH2      OT      -0.834000       15.9994           0
     14501 TIP3     234      TIP3     H1       HT       0.417000       1.00800           0
     14502 TIP3     234      TIP3     H2       HT       0.417000       1.00800           0
     14503 TIP3     235      TIP3     OH2      OT      -0.834000       15.9994           0
     14504 TIP3     235      TIP3     H1       HT       0.417000       1.00800           0
     14505 TIP3     235      TIP3     H2       HT       0.417000       1.00800           0
     14506 TIP3     236      TIP3     OH2      OT      -0.834000       15.9994           0
     14507 TIP3     236      TIP3     H1       HT       0.417000       1.00800           0
     14508 TIP3     236      TIP3     H2       HT       0.417000       1.00800           0
     14509 TIP3     237      TIP3     OH2      OT      -0.834000       15.9994           0
     14510 TIP3     237      TIP3     H1       HT       0.417000       1.00800           0
     14511 TIP3     237      TIP3     H2       HT       0.417000       1.00800           0
     14512 TIP3     238      TIP3     OH2      OT      -0.834000       15.9994           0
     14513 TIP3     238      TIP3     H1       HT       0.417000       1.00800           0
     14514 TIP3     238      TIP3     H2       HT       0.417000       1.00800           0
     14515 TIP3     239      TIP3     OH2      OT      -0.834000       15.9994           0
     14516 TIP3     239      TIP3     H1       HT       0.417000       1.00800           0
     14517 TIP3     239      TIP3     H2       HT       0.417000       1.00800           0
     14518 TIP3     240      TIP3     OH2      OT      -0.834000       15.9994           0
     14519 TIP3     240      TIP3     H1       HT       0.417000       1.00800           0
     14520 TIP3     240      TIP3     H2       HT       0.417000       1.00800           0
     14521 TIP3     241      TIP3     OH2      OT      -0.834000       15.9994           0
     14522 TIP3     241      TIP3     H1       HT       0.417000       1.00800           0
     14523 TIP3     241      TIP3     H2       HT       0.417000       1.00800           0
     14524 TIP3     242      TIP3     OH2      OT      -0.834000       15.9994           0
     14525 TIP3     242      TIP3     H1       HT       0.417000       1.00800           0
     14526 TIP3     242      TIP3     H2       HT       0.417000       1.00800           0
     14527 TIP3     243      TIP3     OH2      OT      -0.834000       15.9994           0
     14528 TIP3     243      TIP3     H1       HT       0.417000       1.00800           0
     14529 TIP3     243      TIP3     H2       HT       0.417000       1.00800           0
     14530 TIP3     244      TIP3     OH2      OT      -0.834000       15.9994           0
     14531 TIP3     244      TIP3     H1       HT       0.417000       1.00800           0
     14532 TIP3     244      TIP3     H2       HT       0.417000       1.00800           0
     14533 TIP3     245      TIP3     OH2      OT      -0.834000       15.9994           0
     14534 TIP3     245      TIP3     H1       HT       0.417000       1.00800           0
     14535 TIP3     245      TIP3     H2       HT       0.417000       1.00800           0
     14536 TIP3     246      TIP3     OH2      OT      -0.834000       15.9994           0
     14537 TIP3     246      TIP3     H1       HT       0.417000       1.00800           0
     14538 TIP3     246      TIP3     H2       HT       0.417000       1.00800           0
     14539 TIP3     247      TIP3     OH2      OT      -0.834000       15.9994           0
     14540 TIP3     247      TIP3     H1       HT       0.417000       1.00800           0
     14541 TIP3     247      TIP3     H2       HT       0.417000       1.00800           0
     14542 TIP3     248      TIP3     OH2      OT      -0.834000       15.9994           0
     14543 TIP3     248      TIP3     H1       HT       0.417000       1.00800           0
     14544 TIP3     248      TIP3     H2       HT       0.417000       1.00800           0
     14545 TIP3     249      TIP3     OH2      OT      -0.834000       15.9994           0
     14546 TIP3     249      TIP3     H1       HT       0.417000       1.00800           0
     14547 TIP3     249      TIP3     H2       HT       0.417000       1.00800           0
     14548 TIP3     250      TIP3     OH2      OT      -0.834000       15.9994           0
     14549 TIP3     250      TIP3     H1       HT       0.417000       1.00800           0
     14550 TIP3     250      TIP3     H2       HT       0.417000       1.00800           0
     14551 TIP3     251      TIP3     OH2      OT      -0.834000       15.9994           0
     14552 TIP3     251      TIP3     H1       HT       0.417000       1.00800           0
     14553 TIP3     251      TIP3     H2       HT       0.417000       1.00800           0
     14554 TIP3     252      TIP3     OH2      OT      -0.834000       15.9994           0
     14555 TIP3     252      TIP3     H1       HT       0.417000       1.00800           0
     14556 TIP3     252      TIP3     H2       HT       0.417000       1.00800           0
     14557 TIP3     253      TIP3     OH2      OT      -0.834000       15.9994           0
     14558 TIP3     253      TIP3     H1       HT       0.417000       1.00800           0
     14559 TIP3     253      TIP3     H2       HT       0.417000       1.00800           0
     14560 TIP3     254      TIP3     OH2      OT      -0.834000       15.9994           0
     14561 TIP3     254      TIP3     H1       HT       0.417000       1.00800           0
     14562 TIP3     254      TIP3     H2       HT       0.417000       1.00800           0
     14563 TIP3     255      TIP3     OH2      OT      -0.834000       15.9994           0
     14564 TIP3     255      TIP3     H1       HT       0.417000       1.00800           0
     14565 TIP3     255      TIP3     H2       HT       0.417000       1.00800           0
     14566 TIP3     256      TIP3     OH2      OT      -0.834000       15.9994           0
     14567 TIP3     256      TIP3     H1       HT       0.417000       1.00800           0
     14568 TIP3     256      TIP3     H2       HT       0.417000       1.00800           0
     14569 TIP3     257      TIP3     OH2      OT      -0.834000       15.9994           0
     14570 TIP3     257      TIP3     H1       HT       0.417000       1.00800           0
     14571 TIP3     257      TIP3     H2       HT       0.417000       1.00800           0
     14572 TIP3     258      TIP3     OH2      OT      -0.834000       15.9994           0
     14573 TIP3     258      TIP3     H1       HT       0.417000       1.00800           0
     14574 TIP3     258      TIP3     H2       HT       0.417000       1.00800           0
     14575 TIP3     259      TIP3     OH2      OT      -0.834000       15.9994           0
     14576 TIP3     259      TIP3     H1       HT       0.417000       1.00800           0
     14577 TIP3     259      TIP3     H2       HT       0.417000       1.00800           0
     14578 TIP3     260      TIP3     OH2      OT      -0.834000       15.9994           0
     14579 TIP3     260      TIP3     H1       HT       0.417000       1.00800           0
     14580 TIP3     260      TIP3     H2       HT       0.417000       1.00800           0
     14581 TIP3     261      TIP3     OH2      OT      -0.834000       15.9994           0
     14582 TIP3     261      TIP3     H1       HT       0.417000       1.00800           0
     14583 TIP3     261      TIP3     H2       HT       0.417000       1.00800           0
     14584 TIP3     262      TIP3     OH2      OT      -0.834000       15.9994           0
     14585 TIP3     262      TIP3     H1       HT       0.417000       1.00800           0
     14586 TIP3     262      TIP3     H2       HT       0.417000       1.00800           0
     14587 TIP3     263      TIP3     OH2      OT      -0.834000       15.9994           0
     14588 TIP3     263      TIP3     H1       HT       0.417000       1.00800           0
     14589 TIP3     263      TIP3     H2       HT       0.417000       1.00800           0
     14590 TIP3     264      TIP3     OH2      OT      -0.834000       15.9994           0
     14591 TIP3     264      TIP3     H1       HT       0.417000       1.00800           0
     14592 TIP3     264      TIP3     H2       HT       0.417000       1.00800           0
     14593 TIP3     265      TIP3     OH2      OT      -0.834000       15.9994           0
     14594 TIP3     265      TIP3     H1       HT       0.417000       1.00800           0
     14595 TIP3     265      TIP3     H2       HT       0.417000       1.00800           0
     14596 TIP3     266      TIP3     OH2      OT      -0.834000       15.9994           0
     14597 TIP3     266      TIP3     H1       HT       0.417000       1.00800           0
     14598 TIP3     266      TIP3     H2       HT       0.417000       1.00800           0
     14599 TIP3     267      TIP3     OH2      OT      -0.834000       15.9994           0
     14600 TIP3     267      TIP3     H1       HT       0.417000       1.00800           0
     14601 TIP3     267      TIP3     H2       HT       0.417000       1.00800           0
     14602 TIP3     268      TIP3     OH2      OT      -0.834000       15.9994           0
     14603 TIP3     268      TIP3     H1       HT       0.417000       1.00800           0
     14604 TIP3     268      TIP3     H2       HT       0.417000       1.00800           0
     14605 TIP3     269      TIP3     OH2      OT      -0.834000       15.9994           0
     14606 TIP3     269      TIP3     H1       HT       0.417000       1.00800           0
     14607 TIP3     269      TIP3     H2       HT       0.417000       1.00800           0
     14608 TIP3     270      TIP3     OH2      OT      -0.834000       15.9994           0
     14609 TIP3     270      TIP3     H1       HT       0.417000       1.00800           0
     14610 TIP3     270      TIP3     H2       HT       0.417000       1.00800           0
     14611 TIP3     271      TIP3     OH2      OT      -0.834000       15.9994           0
     14612 TIP3     271      TIP3     H1       HT       0.417000       1.00800           0
     14613 TIP3     271      TIP3     H2       HT       0.417000       1.00800           0
     14614 TIP3     272      TIP3     OH2      OT      -0.834000       15.9994           0
     14615 TIP3     272      TIP3     H1       HT       0.417000       1.00800           0
     14616 TIP3     272      TIP3     H2       HT       0.417000       1.00800           0
     14617 TIP3     273      TIP3     OH2      OT      -0.834000       15.9994           0
     14618 TIP3     273      TIP3     H1       HT       0.417000       1.00800           0
     14619 TIP3     273      TIP3     H2       HT       0.417000       1.00800           0
     14620 TIP3     274      TIP3     OH2      OT      -0.834000       15.9994           0
     14621 TIP3     274      TIP3     H1       HT       0.417000       1.00800           0
     14622 TIP3     274      TIP3     H2       HT       0.417000       1.00800           0
     14623 TIP3     275      TIP3     OH2      OT      -0.834000       15.9994           0
     14624 TIP3     275      TIP3     H1       HT       0.417000       1.00800           0
     14625 TIP3     275      TIP3     H2       HT       0.417000       1.00800           0
     14626 TIP3     276      TIP3     OH2      OT      -0.834000       15.9994           0
     14627 TIP3     276      TIP3     H1       HT       0.417000       1.00800           0
     14628 TIP3     276      TIP3     H2       HT       0.417000       1.00800           0
     14629 TIP3     277      TIP3     OH2      OT      -0.834000       15.9994           0
     14630 TIP3     277      TIP3     H1       HT       0.417000       1.00800           0
     14631 TIP3     277      TIP3     H2       HT       0.417000       1.00800           0
     14632 TIP3     278      TIP3     OH2      OT      -0.834000       15.9994           0
     14633 TIP3     278      TIP3     H1       HT       0.417000       1.00800           0
     14634 TIP3     278      TIP3     H2       HT       0.417000       1.00800           0
     14635 TIP3     279      TIP3     OH2      OT      -0.834000       15.9994           0
     14636 TIP3     279      TIP3     H1       HT       0.417000       1.00800           0
     14637 TIP3     279      TIP3     H2       HT       0.417000       1.00800           0
     14638 TIP3     280      TIP3     OH2      OT      -0.834000       15.9994           0
     14639 TIP3     280      TIP3     H1       HT       0.417000       1.00800           0
     14640 TIP3     280      TIP3     H2       HT       0.417000       1.00800           0
     14641 TIP3     281      TIP3     OH2      OT      -0.834000       15.9994           0
     14642 TIP3     281      TIP3     H1       HT       0.417000       1.00800           0
     14643 TIP3     281      TIP3     H2       HT       0.417000       1.00800           0
     14644 TIP3     282      TIP3     OH2      OT      -0.834000       15.9994           0
     14645 TIP3     282      TIP3     H1       HT       0.417000       1.00800           0
     14646 TIP3     282      TIP3     H2       HT       0.417000       1.00800           0
     14647 TIP3     283      TIP3     OH2      OT      -0.834000       15.9994           0
     14648 TIP3     283      TIP3     H1       HT       0.417000       1.00800           0
     14649 TIP3     283      TIP3     H2       HT       0.417000       1.00800           0
     14650 TIP3     284      TIP3     OH2      OT      -0.834000       15.9994           0
     14651 TIP3     284      TIP3     H1       HT       0.417000       1.00800           0
     14652 TIP3     284      TIP3     H2       HT       0.417000       1.00800           0
     14653 TIP3     285      TIP3     OH2      OT      -0.834000       15.9994           0
     14654 TIP3     285      TIP3     H1       HT       0.417000       1.00800           0
     14655 TIP3     285      TIP3     H2       HT       0.417000       1.00800           0
     14656 TIP3     286      TIP3     OH2      OT      -0.834000       15.9994           0
     14657 TIP3     286      TIP3     H1       HT       0.417000       1.00800           0
     14658 TIP3     286      TIP3     H2       HT       0.417000       1.00800           0
     14659 TIP3     287      TIP3     OH2      OT      -0.834000       15.9994           0
     14660 TIP3     287      TIP3     H1       HT       0.417000       1.00800           0
     14661 TIP3     287      TIP3     H2       HT       0.417000       1.00800           0
     14662 TIP3     288      TIP3     OH2      OT      -0.834000       15.9994           0
     14663 TIP3     288      TIP3     H1       HT       0.417000       1.00800           0
     14664 TIP3     288      TIP3     H2       HT       0.417000       1.00800           0
     14665 TIP3     289      TIP3     OH2      OT      -0.834000       15.9994           0
     14666 TIP3     289      TIP3     H1       HT       0.417000       1.00800           0
     14667 TIP3     289      TIP3     H2       HT       0.417000       1.00800           0
     14668 TIP3     290      TIP3     OH2      OT      -0.834000       15.9994           0
     14669 TIP3     290      TIP3     H1       HT       0.417000       1.00800           0
     14670 TIP3     290      TIP3     H2       HT       0.417000       1.00800           0
     14671 TIP3     291      TIP3     OH2      OT      -0.834000       15.9994           0
     14672 TIP3     291      TIP3     H1       HT       0.417000       1.00800           0
     14673 TIP3     291      TIP3     H2       HT       0.417000       1.00800           0
     14674 TIP3     292      TIP3     OH2      OT      -0.834000       15.9994           0
     14675 TIP3     292      TIP3     H1       HT       0.417000       1.00800           0
     14676 TIP3     292      TIP3     H2       HT       0.417000       1.00800           0
     14677 TIP3     293      TIP3     OH2      OT      -0.834000       15.9994           0
     14678 TIP3     293      TIP3     H1       HT       0.417000       1.00800           0
     14679 TIP3     293      TIP3     H2       HT       0.417000       1.00800           0
     14680 TIP3     294      TIP3     OH2      OT      -0.834000       15.9994           0
     14681 TIP3     294      TIP3     H1       HT       0.417000       1.00800           0
     14682 TIP3     294      TIP3     H2       HT       0.417000       1.00800           0
     14683 TIP3     295      TIP3     OH2      OT      -0.834000       15.9994           0
     14684 TIP3     295      TIP3     H1       HT       0.417000       1.00800           0
     14685 TIP3     295      TIP3     H2       HT       0.417000       1.00800           0
     14686 TIP3     296      TIP3     OH2      OT      -0.834000       15.9994           0
     14687 TIP3     296      TIP3     H1       HT       0.417000       1.00800           0
     14688 TIP3     296      TIP3     H2       HT       0.417000       1.00800           0
     14689 TIP3     297      TIP3     OH2      OT      -0.834000       15.9994           0
     14690 TIP3     297      TIP3     H1       HT       0.417000       1.00800           0
     14691 TIP3     297      TIP3     H2       HT       0.417000       1.00800           0
     14692 TIP3     298      TIP3     OH2      OT      -0.834000       15.9994           0
     14693 TIP3     298      TIP3     H1       HT       0.417000       1.00800           0
     14694 TIP3     298      TIP3     H2       HT       0.417000       1.00800           0
     14695 TIP3     299      TIP3     OH2      OT      -0.834000       15.9994           0
     14696 TIP3     299      TIP3     H1       HT       0.417000       1.00800           0
     14697 TIP3     299      TIP3     H2       HT       0.417000       1.00800           0
     14698 TIP3     300      TIP3     OH2      OT      -0.834000       15.9994           0
     14699 TIP3     300      TIP3     H1       HT       0.417000       1.00800           0
     14700 TIP3     300      TIP3     H2       HT       0.417000       1.00800           0
     14701 TIP3     301      TIP3     OH2      OT      -0.834000       15.9994           0
     14702 TIP3     301      TIP3     H1       HT       0.417000       1.00800           0
     14703 TIP3     301      TIP3     H2       HT       0.417000       1.00800           0
     14704 TIP3     302      TIP3     OH2      OT      -0.834000       15.9994           0
     14705 TIP3     302      TIP3     H1       HT       0.417000       1.00800           0
     14706 TIP3     302      TIP3     H2       HT       0.417000       1.00800           0
     14707 TIP3     303      TIP3     OH2      OT      -0.834000       15.9994           0
     14708 TIP3     303      TIP3     H1       HT       0.417000       1.00800           0
     14709 TIP3     303      TIP3     H2       HT       0.417000       1.00800           0
     14710 TIP3     304      TIP3     OH2      OT      -0.834000       15.9994           0
     14711 TIP3     304      TIP3     H1       HT       0.417000       1.00800           0
     14712 TIP3     304      TIP3     H2       HT       0.417000       1.00800           0
     14713 TIP3     305      TIP3     OH2      OT      -0.834000       15.9994           0
     14714 TIP3     305      TIP3     H1       HT       0.417000       1.00800           0
     14715 TIP3     305      TIP3     H2       HT       0.417000       1.00800           0
     14716 TIP3     306      TIP3     OH2      OT      -0.834000       15.9994           0
     14717 TIP3     306      TIP3     H1       HT       0.417000       1.00800           0
     14718 TIP3     306      TIP3     H2       HT       0.417000       1.00800           0
     14719 TIP3     307      TIP3     OH2      OT      -0.834000       15.9994           0
     14720 TIP3     307      TIP3     H1       HT       0.417000       1.00800           0
     14721 TIP3     307      TIP3     H2       HT       0.417000       1.00800           0
     14722 TIP3     308      TIP3     OH2      OT      -0.834000       15.9994           0
     14723 TIP3     308      TIP3     H1       HT       0.417000       1.00800           0
     14724 TIP3     308      TIP3     H2       HT       0.417000       1.00800           0
     14725 TIP3     309      TIP3     OH2      OT      -0.834000       15.9994           0
     14726 TIP3     309      TIP3     H1       HT       0.417000       1.00800           0
     14727 TIP3     309      TIP3     H2       HT       0.417000       1.00800           0
     14728 TIP3     310      TIP3     OH2      OT      -0.834000       15.9994           0
     14729 TIP3     310      TIP3     H1       HT       0.417000       1.00800           0
     14730 TIP3     310      TIP3     H2       HT       0.417000       1.00800           0
     14731 TIP3     311      TIP3     OH2      OT      -0.834000       15.9994           0
     14732 TIP3     311      TIP3     H1       HT       0.417000       1.00800           0
     14733 TIP3     311      TIP3     H2       HT       0.417000       1.00800           0
     14734 TIP3     312      TIP3     OH2      OT      -0.834000       15.9994           0
     14735 TIP3     312      TIP3     H1       HT       0.417000       1.00800           0
     14736 TIP3     312      TIP3     H2       HT       0.417000       1.00800           0
     14737 TIP3     313      TIP3     OH2      OT      -0.834000       15.9994           0
     14738 TIP3     313      TIP3     H1       HT       0.417000       1.00800           0
     14739 TIP3     313      TIP3     H2       HT       0.417000       1.00800           0
     14740 TIP3     314      TIP3     OH2      OT      -0.834000       15.9994           0
     14741 TIP3     314      TIP3     H1       HT       0.417000       1.00800           0
     14742 TIP3     314      TIP3     H2       HT       0.417000       1.00800           0
     14743 TIP3     315      TIP3     OH2      OT      -0.834000       15.9994           0
     14744 TIP3     315      TIP3     H1       HT       0.417000       1.00800           0
     14745 TIP3     315      TIP3     H2       HT       0.417000       1.00800           0
     14746 TIP3     316      TIP3     OH2      OT      -0.834000       15.9994           0
     14747 TIP3     316      TIP3     H1       HT       0.417000       1.00800           0
     14748 TIP3     316      TIP3     H2       HT       0.417000       1.00800           0
     14749 TIP3     317      TIP3     OH2      OT      -0.834000       15.9994           0
     14750 TIP3     317      TIP3     H1       HT       0.417000       1.00800           0
     14751 TIP3     317      TIP3     H2       HT       0.417000       1.00800           0
     14752 TIP3     318      TIP3     OH2      OT      -0.834000       15.9994           0
     14753 TIP3     318      TIP3     H1       HT       0.417000       1.00800           0
     14754 TIP3     318      TIP3     H2       HT       0.417000       1.00800           0
     14755 TIP3     319      TIP3     OH2      OT      -0.834000       15.9994           0
     14756 TIP3     319      TIP3     H1       HT       0.417000       1.00800           0
     14757 TIP3     319      TIP3     H2       HT       0.417000       1.00800           0
     14758 TIP3     320      TIP3     OH2      OT      -0.834000       15.9994           0
     14759 TIP3     320      TIP3     H1       HT       0.417000       1.00800           0
     14760 TIP3     320      TIP3     H2       HT       0.417000       1.00800           0
     14761 TIP3     321      TIP3     OH2      OT      -0.834000       15.9994           0
     14762 TIP3     321      TIP3     H1       HT       0.417000       1.00800           0
     14763 TIP3     321      TIP3     H2       HT       0.417000       1.00800           0
     14764 TIP3     322      TIP3     OH2      OT      -0.834000       15.9994           0
     14765 TIP3     322      TIP3     H1       HT       0.417000       1.00800           0
     14766 TIP3     322      TIP3     H2       HT       0.417000       1.00800           0
     14767 TIP3     323      TIP3     OH2      OT      -0.834000       15.9994           0
     14768 TIP3     323      TIP3     H1       HT       0.417000       1.00800           0
     14769 TIP3     323      TIP3     H2       HT       0.417000       1.00800           0
     14770 TIP3     324      TIP3     OH2      OT      -0.834000       15.9994           0
     14771 TIP3     324      TIP3     H1       HT       0.417000       1.00800           0
     14772 TIP3     324      TIP3     H2       HT       0.417000       1.00800           0
     14773 TIP3     325      TIP3     OH2      OT      -0.834000       15.9994           0
     14774 TIP3     325      TIP3     H1       HT       0.417000       1.00800           0
     14775 TIP3     325      TIP3     H2       HT       0.417000       1.00800           0
     14776 TIP3     326      TIP3     OH2      OT      -0.834000       15.9994           0
     14777 TIP3     326      TIP3     H1       HT       0.417000       1.00800           0
     14778 TIP3     326      TIP3     H2       HT       0.417000       1.00800           0
     14779 TIP3     327      TIP3     OH2      OT      -0.834000       15.9994           0
     14780 TIP3     327      TIP3     H1       HT       0.417000       1.00800           0
     14781 TIP3     327      TIP3     H2       HT       0.417000       1.00800           0
     14782 TIP3     328      TIP3     OH2      OT      -0.834000       15.9994           0
     14783 TIP3     328      TIP3     H1       HT       0.417000       1.00800           0
     14784 TIP3     328      TIP3     H2       HT       0.417000       1.00800           0
     14785 TIP3     329      TIP3     OH2      OT      -0.834000       15.9994           0
     14786 TIP3     329      TIP3     H1       HT       0.417000       1.00800           0
     14787 TIP3     329      TIP3     H2       HT       0.417000       1.00800           0
     14788 TIP3     330      TIP3     OH2      OT      -0.834000       15.9994           0
     14789 TIP3     330      TIP3     H1       HT       0.417000       1.00800           0
     14790 TIP3     330      TIP3     H2       HT       0.417000       1.00800           0
     14791 TIP3     331      TIP3     OH2      OT      -0.834000       15.9994           0
     14792 TIP3     331      TIP3     H1       HT       0.417000       1.00800           0
     14793 TIP3     331      TIP3     H2       HT       0.417000       1.00800           0
     14794 TIP3     332      TIP3     OH2      OT      -0.834000       15.9994           0
     14795 TIP3     332      TIP3     H1       HT       0.417000       1.00800           0
     14796 TIP3     332      TIP3     H2       HT       0.417000       1.00800           0
     14797 TIP3     333      TIP3     OH2      OT      -0.834000       15.9994           0
     14798 TIP3     333      TIP3     H1       HT       0.417000       1.00800           0
     14799 TIP3     333      TIP3     H2       HT       0.417000       1.00800           0
     14800 TIP3     334      TIP3     OH2      OT      -0.834000       15.9994           0
     14801 TIP3     334      TIP3     H1       HT       0.417000       1.00800           0
     14802 TIP3     334      TIP3     H2       HT       0.417000       1.00800           0
     14803 TIP3     335      TIP3     OH2      OT      -0.834000       15.9994           0
     14804 TIP3     335      TIP3     H1       HT       0.417000       1.00800           0
     14805 TIP3     335      TIP3     H2       HT       0.417000       1.00800           0
     14806 TIP3     336      TIP3     OH2      OT      -0.834000       15.9994           0
     14807 TIP3     336      TIP3     H1       HT       0.417000       1.00800           0
     14808 TIP3     336      TIP3     H2       HT       0.417000       1.00800           0
     14809 TIP3     337      TIP3     OH2      OT      -0.834000       15.9994           0
     14810 TIP3     337      TIP3     H1       HT       0.417000       1.00800           0
     14811 TIP3     337      TIP3     H2       HT       0.417000       1.00800           0
     14812 TIP3     338      TIP3     OH2      OT      -0.834000       15.9994           0
     14813 TIP3     338      TIP3     H1       HT       0.417000       1.00800           0
     14814 TIP3     338      TIP3     H2       HT       0.417000       1.00800           0
     14815 TIP3     339      TIP3     OH2      OT      -0.834000       15.9994           0
     14816 TIP3     339      TIP3     H1       HT       0.417000       1.00800           0
     14817 TIP3     339      TIP3     H2       HT       0.417000       1.00800           0
     14818 TIP3     340      TIP3     OH2      OT      -0.834000       15.9994           0
     14819 TIP3     340      TIP3     H1       HT       0.417000       1.00800           0
     14820 TIP3     340      TIP3     H2       HT       0.417000       1.00800           0
     14821 TIP3     341      TIP3     OH2      OT      -0.834000       15.9994           0
     14822 TIP3     341      TIP3     H1       HT       0.417000       1.00800           0
     14823 TIP3     341      TIP3     H2       HT       0.417000       1.00800           0
     14824 TIP3     342      TIP3     OH2      OT      -0.834000       15.9994           0
     14825 TIP3     342      TIP3     H1       HT       0.417000       1.00800           0
     14826 TIP3     342      TIP3     H2       HT       0.417000       1.00800           0
     14827 TIP3     343      TIP3     OH2      OT      -0.834000       15.9994           0
     14828 TIP3     343      TIP3     H1       HT       0.417000       1.00800           0
     14829 TIP3     343      TIP3     H2       HT       0.417000       1.00800           0
     14830 TIP3     344      TIP3     OH2      OT      -0.834000       15.9994           0
     14831 TIP3     344      TIP3     H1       HT       0.417000       1.00800           0
     14832 TIP3     344      TIP3     H2       HT       0.417000       1.00800           0
     14833 TIP3     345      TIP3     OH2      OT      -0.834000       15.9994           0
     14834 TIP3     345      TIP3     H1       HT       0.417000       1.00800           0
     14835 TIP3     345      TIP3     H2       HT       0.417000       1.00800           0
     14836 TIP3     346      TIP3     OH2      OT      -0.834000       15.9994           0
     14837 TIP3     346      TIP3     H1       HT       0.417000       1.00800           0
     14838 TIP3     346      TIP3     H2       HT       0.417000       1.00800           0
     14839 TIP3     347      TIP3     OH2      OT      -0.834000       15.9994           0
     14840 TIP3     347      TIP3     H1       HT       0.417000       1.00800           0
     14841 TIP3     347      TIP3     H2       HT       0.417000       1.00800           0
     14842 TIP3     348      TIP3     OH2      OT      -0.834000       15.9994           0
     14843 TIP3     348      TIP3     H1       HT       0.417000       1.00800           0
     14844 TIP3     348      TIP3     H2       HT       0.417000       1.00800           0
     14845 TIP3     349      TIP3     OH2      OT      -0.834000       15.9994           0
     14846 TIP3     349      TIP3     H1       HT       0.417000       1.00800           0
     14847 TIP3     349      TIP3     H2       HT       0.417000       1.00800           0
     14848 TIP3     350      TIP3     OH2      OT      -0.834000       15.9994           0
     14849 TIP3     350      TIP3     H1       HT       0.417000       1.00800           0
     14850 TIP3     350      TIP3     H2       HT       0.417000       1.00800           0
     14851 TIP3     351      TIP3     OH2      OT      -0.834000       15.9994           0
     14852 TIP3     351      TIP3     H1       HT       0.417000       1.00800           0
     14853 TIP3     351      TIP3     H2       HT       0.417000       1.00800           0
     14854 TIP3     352      TIP3     OH2      OT      -0.834000       15.9994           0
     14855 TIP3     352      TIP3     H1       HT       0.417000       1.00800           0
     14856 TIP3     352      TIP3     H2       HT       0.417000       1.00800           0
     14857 TIP3     353      TIP3     OH2      OT      -0.834000       15.9994           0
     14858 TIP3     353      TIP3     H1       HT       0.417000       1.00800           0
     14859 TIP3     353      TIP3     H2       HT       0.417000       1.00800           0
     14860 TIP3     354      TIP3     OH2      OT      -0.834000       15.9994           0
     14861 TIP3     354      TIP3     H1       HT       0.417000       1.00800           0
     14862 TIP3     354      TIP3     H2       HT       0.417000       1.00800           0
     14863 TIP3     355      TIP3     OH2      OT      -0.834000       15.9994           0
     14864 TIP3     355      TIP3     H1       HT       0.417000       1.00800           0
     14865 TIP3     355      TIP3     H2       HT       0.417000       1.00800           0
     14866 TIP3     356      TIP3     OH2      OT      -0.834000       15.9994           0
     14867 TIP3     356      TIP3     H1       HT       0.417000       1.00800           0
     14868 TIP3     356      TIP3     H2       HT       0.417000       1.00800           0
     14869 TIP3     357      TIP3     OH2      OT      -0.834000       15.9994           0
     14870 TIP3     357      TIP3     H1       HT       0.417000       1.00800           0
     14871 TIP3     357      TIP3     H2       HT       0.417000       1.00800           0
     14872 TIP3     358      TIP3     OH2      OT      -0.834000       15.9994           0
     14873 TIP3     358      TIP3     H1       HT       0.417000       1.00800           0
     14874 TIP3     358      TIP3     H2       HT       0.417000       1.00800           0
     14875 TIP3     359      TIP3     OH2      OT      -0.834000       15.9994           0
     14876 TIP3     359      TIP3     H1       HT       0.417000       1.00800           0
     14877 TIP3     359      TIP3     H2       HT       0.417000       1.00800           0
     14878 TIP3     360      TIP3     OH2      OT      -0.834000       15.9994           0
     14879 TIP3     360      TIP3     H1       HT       0.417000       1.00800           0
     14880 TIP3     360      TIP3     H2       HT       0.417000       1.00800           0
     14881 TIP3     361      TIP3     OH2      OT      -0.834000       15.9994           0
     14882 TIP3     361      TIP3     H1       HT       0.417000       1.00800           0
     14883 TIP3     361      TIP3     H2       HT       0.417000       1.00800           0
     14884 TIP3     362      TIP3     OH2      OT      -0.834000       15.9994           0
     14885 TIP3     362      TIP3     H1       HT       0.417000       1.00800           0
     14886 TIP3     362      TIP3     H2       HT       0.417000       1.00800           0
     14887 TIP3     363      TIP3     OH2      OT      -0.834000       15.9994           0
     14888 TIP3     363      TIP3     H1       HT       0.417000       1.00800           0
     14889 TIP3     363      TIP3     H2       HT       0.417000       1.00800           0
     14890 TIP3     364      TIP3     OH2      OT      -0.834000       15.9994           0
     14891 TIP3     364      TIP3     H1       HT       0.417000       1.00800           0
     14892 TIP3     364      TIP3     H2       HT       0.417000       1.00800           0
     14893 TIP3     365      TIP3     OH2      OT      -0.834000       15.9994           0
     14894 TIP3     365      TIP3     H1       HT       0.417000       1.00800           0
     14895 TIP3     365      TIP3     H2       HT       0.417000       1.00800           0
     14896 TIP3     366      TIP3     OH2      OT      -0.834000       15.9994           0
     14897 TIP3     366      TIP3     H1       HT       0.417000       1.00800           0
     14898 TIP3     366      TIP3     H2       HT       0.417000       1.00800           0
     14899 TIP3     367      TIP3     OH2      OT      -0.834000       15.9994           0
     14900 TIP3     367      TIP3     H1       HT       0.417000       1.00800           0
     14901 TIP3     367      TIP3     H2       HT       0.417000       1.00800           0
     14902 TIP3     368      TIP3     OH2      OT      -0.834000       15.9994           0
     14903 TIP3     368      TIP3     H1       HT       0.417000       1.00800           0
     14904 TIP3     368      TIP3     H2       HT       0.417000       1.00800           0
     14905 TIP3     369      TIP3     OH2      OT      -0.834000       15.9994           0
     14906 TIP3     369      TIP3     H1       HT       0.417000       1.00800           0
     14907 TIP3     369      TIP3     H2       HT       0.417000       1.00800           0
     14908 TIP3     370      TIP3     OH2      OT      -0.834000       15.9994           0
     14909 TIP3     370      TIP3     H1       HT       0.417000       1.00800           0
     14910 TIP3     370      TIP3     H2       HT       0.417000       1.00800           0
     14911 TIP3     371      TIP3     OH2      OT      -0.834000       15.9994           0
     14912 TIP3     371      TIP3     H1       HT       0.417000       1.00800           0
     14913 TIP3     371      TIP3     H2       HT       0.417000       1.00800           0
     14914 TIP3     372      TIP3     OH2      OT      -0.834000       15.9994           0
     14915 TIP3     372      TIP3     H1       HT       0.417000       1.00800           0
     14916 TIP3     372      TIP3     H2       HT       0.417000       1.00800           0
     14917 TIP3     373      TIP3     OH2      OT      -0.834000       15.9994           0
     14918 TIP3     373      TIP3     H1       HT       0.417000       1.00800           0
     14919 TIP3     373      TIP3     H2       HT       0.417000       1.00800           0
     14920 TIP3     374      TIP3     OH2      OT      -0.834000       15.9994           0
     14921 TIP3     374      TIP3     H1       HT       0.417000       1.00800           0
     14922 TIP3     374      TIP3     H2       HT       0.417000       1.00800           0
     14923 TIP3     375      TIP3     OH2      OT      -0.834000       15.9994           0
     14924 TIP3     375      TIP3     H1       HT       0.417000       1.00800           0
     14925 TIP3     375      TIP3     H2       HT       0.417000       1.00800           0
     14926 TIP3     376      TIP3     OH2      OT      -0.834000       15.9994           0
     14927 TIP3     376      TIP3     H1       HT       0.417000       1.00800           0
     14928 TIP3     376      TIP3     H2       HT       0.417000       1.00800           0
     14929 TIP3     377      TIP3     OH2      OT      -0.834000       15.9994           0
     14930 TIP3     377      TIP3     H1       HT       0.417000       1.00800           0
     14931 TIP3     377      TIP3     H2       HT       0.417000       1.00800           0
     14932 TIP3     378      TIP3     OH2      OT      -0.834000       15.9994           0
     14933 TIP3     378      TIP3     H1       HT       0.417000       1.00800           0
     14934 TIP3     378      TIP3     H2       HT       0.417000       1.00800           0
     14935 TIP3     379      TIP3     OH2      OT      -0.834000       15.9994           0
     14936 TIP3     379      TIP3     H1       HT       0.417000       1.00800           0
     14937 TIP3     379      TIP3     H2       HT       0.417000       1.00800           0
     14938 TIP3     380      TIP3     OH2      OT      -0.834000       15.9994           0
     14939 TIP3     380      TIP3     H1       HT       0.417000       1.00800           0
     14940 TIP3     380      TIP3     H2       HT       0.417000       1.00800           0
     14941 TIP3     381      TIP3     OH2      OT      -0.834000       15.9994           0
     14942 TIP3     381      TIP3     H1       HT       0.417000       1.00800           0
     14943 TIP3     381      TIP3     H2       HT       0.417000       1.00800           0
     14944 TIP3     382      TIP3     OH2      OT      -0.834000       15.9994           0
     14945 TIP3     382      TIP3     H1       HT       0.417000       1.00800           0
     14946 TIP3     382      TIP3     H2       HT       0.417000       1.00800           0
     14947 TIP3     383      TIP3     OH2      OT      -0.834000       15.9994           0
     14948 TIP3     383      TIP3     H1       HT       0.417000       1.00800           0
     14949 TIP3     383      TIP3     H2       HT       0.417000       1.00800           0
     14950 TIP3     384      TIP3     OH2      OT      -0.834000       15.9994           0
     14951 TIP3     384      TIP3     H1       HT       0.417000       1.00800           0
     14952 TIP3     384      TIP3     H2       HT       0.417000       1.00800           0
     14953 TIP3     385      TIP3     OH2      OT      -0.834000       15.9994           0
     14954 TIP3     385      TIP3     H1       HT       0.417000       1.00800           0
     14955 TIP3     385      TIP3     H2       HT       0.417000       1.00800           0
     14956 TIP3     386      TIP3     OH2      OT      -0.834000       15.9994           0
     14957 TIP3     386      TIP3     H1       HT       0.417000       1.00800           0
     14958 TIP3     386      TIP3     H2       HT       0.417000       1.00800           0
     14959 TIP3     387      TIP3     OH2      OT      -0.834000       15.9994           0
     14960 TIP3     387      TIP3     H1       HT       0.417000       1.00800           0
     14961 TIP3     387      TIP3     H2       HT       0.417000       1.00800           0
     14962 TIP3     388      TIP3     OH2      OT      -0.834000       15.9994           0
     14963 TIP3     388      TIP3     H1       HT       0.417000       1.00800           0
     14964 TIP3     388      TIP3     H2       HT       0.417000       1.00800           0
     14965 TIP3     389      TIP3     OH2      OT      -0.834000       15.9994           0
     14966 TIP3     389      TIP3     H1       HT       0.417000       1.00800           0
     14967 TIP3     389      TIP3     H2       HT       0.417000       1.00800           0
     14968 TIP3     390      TIP3     OH2      OT      -0.834000       15.9994           0
     14969 TIP3     390      TIP3     H1       HT       0.417000       1.00800           0
     14970 TIP3     390      TIP3     H2       HT       0.417000       1.00800           0
     14971 TIP3     391      TIP3     OH2      OT      -0.834000       15.9994           0
     14972 TIP3     391      TIP3     H1       HT       0.417000       1.00800           0
     14973 TIP3     391      TIP3     H2       HT       0.417000       1.00800           0
     14974 TIP3     392      TIP3     OH2      OT      -0.834000       15.9994           0
     14975 TIP3     392      TIP3     H1       HT       0.417000       1.00800           0
     14976 TIP3     392      TIP3     H2       HT       0.417000       1.00800           0
     14977 TIP3     393      TIP3     OH2      OT      -0.834000       15.9994           0
     14978 TIP3     393      TIP3     H1       HT       0.417000       1.00800           0
     14979 TIP3     393      TIP3     H2       HT       0.417000       1.00800           0
     14980 TIP3     394      TIP3     OH2      OT      -0.834000       15.9994           0
     14981 TIP3     394      TIP3     H1       HT       0.417000       1.00800           0
     14982 TIP3     394      TIP3     H2       HT       0.417000       1.00800           0
     14983 TIP3     395      TIP3     OH2      OT      -0.834000       15.9994           0
     14984 TIP3     395      TIP3     H1       HT       0.417000       1.00800           0
     14985 TIP3     395      TIP3     H2       HT       0.417000       1.00800           0
     14986 TIP3     396      TIP3     OH2      OT      -0.834000       15.9994           0
     14987 TIP3     396      TIP3     H1       HT       0.417000       1.00800           0
     14988 TIP3     396      TIP3     H2       HT       0.417000       1.00800           0
     14989 TIP3     397      TIP3     OH2      OT      -0.834000       15.9994           0
     14990 TIP3     397      TIP3     H1       HT       0.417000       1.00800           0
     14991 TIP3     397      TIP3     H2       HT       0.417000       1.00800           0
     14992 TIP3     398      TIP3     OH2      OT      -0.834000       15.9994           0
     14993 TIP3     398      TIP3     H1       HT       0.417000       1.00800           0
     14994 TIP3     398      TIP3     H2       HT       0.417000       1.00800           0
     14995 TIP3     399      TIP3     OH2      OT      -0.834000       15.9994           0
     14996 TIP3     399      TIP3     H1       HT       0.417000       1.00800           0
     14997 TIP3     399      TIP3     H2       HT       0.417000       1.00800           0
     14998 TIP3     400      TIP3     OH2      OT      -0.834000       15.9994           0
     14999 TIP3     400      TIP3     H1       HT       0.417000       1.00800           0
     15000 TIP3     400      TIP3     H2       HT       0.417000       1.00800           0
     15001 TIP3     401      TIP3     OH2      OT      -0.834000       15.9994           0
     15002 TIP3     401      TIP3     H1       HT       0.417000       1.00800           0
     15003 TIP3     401      TIP3     H2       HT       0.417000       1.00800           0
     15004 TIP3     402      TIP3     OH2      OT      -0.834000       15.9994           0
     15005 TIP3     402      TIP3     H1       HT       0.417000       1.00800           0
     15006 TIP3     402      TIP3     H2       HT       0.417000       1.00800           0
     15007 TIP3     403      TIP3     OH2      OT      -0.834000       15.9994           0
     15008 TIP3     403      TIP3     H1       HT       0.417000       1.00800           0
     15009 TIP3     403      TIP3     H2       HT       0.417000       1.00800           0
     15010 TIP3     404      TIP3     OH2      OT      -0.834000       15.9994           0
     15011 TIP3     404      TIP3     H1       HT       0.417000       1.00800           0
     15012 TIP3     404      TIP3     H2       HT       0.417000       1.00800           0
     15013 TIP3     405      TIP3     OH2      OT      -0.834000       15.9994           0
     15014 TIP3     405      TIP3     H1       HT       0.417000       1.00800           0
     15015 TIP3     405      TIP3     H2       HT       0.417000       1.00800           0
     15016 TIP3     406      TIP3     OH2      OT      -0.834000       15.9994           0
     15017 TIP3     406      TIP3     H1       HT       0.417000       1.00800           0
     15018 TIP3     406      TIP3     H2       HT       0.417000       1.00800           0
     15019 TIP3     407      TIP3     OH2      OT      -0.834000       15.9994           0
     15020 TIP3     407      TIP3     H1       HT       0.417000       1.00800           0
     15021 TIP3     407      TIP3     H2       HT       0.417000       1.00800           0
     15022 TIP3     408      TIP3     OH2      OT      -0.834000       15.9994           0
     15023 TIP3     408      TIP3     H1       HT       0.417000       1.00800           0
     15024 TIP3     408      TIP3     H2       HT       0.417000       1.00800           0
     15025 TIP3     409      TIP3     OH2      OT      -0.834000       15.9994           0
     15026 TIP3     409      TIP3     H1       HT       0.417000       1.00800           0
     15027 TIP3     409      TIP3     H2       HT       0.417000       1.00800           0
     15028 TIP3     410      TIP3     OH2      OT      -0.834000       15.9994           0
     15029 TIP3     410      TIP3     H1       HT       0.417000       1.00800           0
     15030 TIP3     410      TIP3     H2       HT       0.417000       1.00800           0
     15031 TIP3     411      TIP3     OH2      OT      -0.834000       15.9994           0
     15032 TIP3     411      TIP3     H1       HT       0.417000       1.00800           0
     15033 TIP3     411      TIP3     H2       HT       0.417000       1.00800           0
     15034 TIP3     412      TIP3     OH2      OT      -0.834000       15.9994           0
     15035 TIP3     412      TIP3     H1       HT       0.417000       1.00800           0
     15036 TIP3     412      TIP3     H2       HT       0.417000       1.00800           0
     15037 TIP3     413      TIP3     OH2      OT      -0.834000       15.9994           0
     15038 TIP3     413      TIP3     H1       HT       0.417000       1.00800           0
     15039 TIP3     413      TIP3     H2       HT       0.417000       1.00800           0
     15040 TIP3     414      TIP3     OH2      OT      -0.834000       15.9994           0
     15041 TIP3     414      TIP3     H1       HT       0.417000       1.00800           0
     15042 TIP3     414      TIP3     H2       HT       0.417000       1.00800           0
     15043 TIP3     415      TIP3     OH2      OT      -0.834000       15.9994           0
     15044 TIP3     415      TIP3     H1       HT       0.417000       1.00800           0
     15045 TIP3     415      TIP3     H2       HT       0.417000       1.00800           0
     15046 TIP3     416      TIP3     OH2      OT      -0.834000       15.9994           0
     15047 TIP3     416      TIP3     H1       HT       0.417000       1.00800           0
     15048 TIP3     416      TIP3     H2       HT       0.417000       1.00800           0
     15049 TIP3     417      TIP3     OH2      OT      -0.834000       15.9994           0
     15050 TIP3     417      TIP3     H1       HT       0.417000       1.00800           0
     15051 TIP3     417      TIP3     H2       HT       0.417000       1.00800           0
     15052 TIP3     418      TIP3     OH2      OT      -0.834000       15.9994           0
     15053 TIP3     418      TIP3     H1       HT       0.417000       1.00800           0
     15054 TIP3     418      TIP3     H2       HT       0.417000       1.00800           0
     15055 TIP3     419      TIP3     OH2      OT      -0.834000       15.9994           0
     15056 TIP3     419      TIP3     H1       HT       0.417000       1.00800           0
     15057 TIP3     419      TIP3     H2       HT       0.417000       1.00800           0
     15058 TIP3     420      TIP3     OH2      OT      -0.834000       15.9994           0
     15059 TIP3     420      TIP3     H1       HT       0.417000       1.00800           0
     15060 TIP3     420      TIP3     H2       HT       0.417000       1.00800           0
     15061 TIP3     421      TIP3     OH2      OT      -0.834000       15.9994           0
     15062 TIP3     421      TIP3     H1       HT       0.417000       1.00800           0
     15063 TIP3     421      TIP3     H2       HT       0.417000       1.00800           0
     15064 TIP3     422      TIP3     OH2      OT      -0.834000       15.9994           0
     15065 TIP3     422      TIP3     H1       HT       0.417000       1.00800           0
     15066 TIP3     422      TIP3     H2       HT       0.417000       1.00800           0
     15067 TIP3     423      TIP3     OH2      OT      -0.834000       15.9994           0
     15068 TIP3     423      TIP3     H1       HT       0.417000       1.00800           0
     15069 TIP3     423      TIP3     H2       HT       0.417000       1.00800           0
     15070 TIP3     424      TIP3     OH2      OT      -0.834000       15.9994           0
     15071 TIP3     424      TIP3     H1       HT       0.417000       1.00800           0
     15072 TIP3     424      TIP3     H2       HT       0.417000       1.00800           0
     15073 TIP3     425      TIP3     OH2      OT      -0.834000       15.9994           0
     15074 TIP3     425      TIP3     H1       HT       0.417000       1.00800           0
     15075 TIP3     425      TIP3     H2       HT       0.417000       1.00800           0
     15076 TIP3     426      TIP3     OH2      OT      -0.834000       15.9994           0
     15077 TIP3     426      TIP3     H1       HT       0.417000       1.00800           0
     15078 TIP3     426      TIP3     H2       HT       0.417000       1.00800           0
     15079 TIP3     427      TIP3     OH2      OT      -0.834000       15.9994           0
     15080 TIP3     427      TIP3     H1       HT       0.417000       1.00800           0
     15081 TIP3     427      TIP3     H2       HT       0.417000       1.00800           0
     15082 TIP3     428      TIP3     OH2      OT      -0.834000       15.9994           0
     15083 TIP3     428      TIP3     H1       HT       0.417000       1.00800           0
     15084 TIP3     428      TIP3     H2       HT       0.417000       1.00800           0
     15085 TIP3     429      TIP3     OH2      OT      -0.834000       15.9994           0
     15086 TIP3     429      TIP3     H1       HT       0.417000       1.00800           0
     15087 TIP3     429      TIP3     H2       HT       0.417000       1.00800           0
     15088 TIP3     430      TIP3     OH2      OT      -0.834000       15.9994           0
     15089 TIP3     430      TIP3     H1       HT       0.417000       1.00800           0
     15090 TIP3     430      TIP3     H2       HT       0.417000       1.00800           0
     15091 TIP3     431      TIP3     OH2      OT      -0.834000       15.9994           0
     15092 TIP3     431      TIP3     H1       HT       0.417000       1.00800           0
     15093 TIP3     431      TIP3     H2       HT       0.417000       1.00800           0
     15094 TIP3     432      TIP3     OH2      OT      -0.834000       15.9994           0
     15095 TIP3     432      TIP3     H1       HT       0.417000       1.00800           0
     15096 TIP3     432      TIP3     H2       HT       0.417000       1.00800           0
     15097 TIP3     433      TIP3     OH2      OT      -0.834000       15.9994           0
     15098 TIP3     433      TIP3     H1       HT       0.417000       1.00800           0
     15099 TIP3     433      TIP3     H2       HT       0.417000       1.00800           0
     15100 TIP3     434      TIP3     OH2      OT      -0.834000       15.9994           0
     15101 TIP3     434      TIP3     H1       HT       0.417000       1.00800           0
     15102 TIP3     434      TIP3     H2       HT       0.417000       1.00800           0
     15103 TIP3     435      TIP3     OH2      OT      -0.834000       15.9994           0
     15104 TIP3     435      TIP3     H1       HT       0.417000       1.00800           0
     15105 TIP3     435      TIP3     H2       HT       0.417000       1.00800           0
     15106 TIP3     436      TIP3     OH2      OT      -0.834000       15.9994           0
     15107 TIP3     436      TIP3     H1       HT       0.417000       1.00800           0
     15108 TIP3     436      TIP3     H2       HT       0.417000       1.00800           0
     15109 TIP3     437      TIP3     OH2      OT      -0.834000       15.9994           0
     15110 TIP3     437      TIP3     H1       HT       0.417000       1.00800           0
     15111 TIP3     437      TIP3     H2       HT       0.417000       1.00800           0
     15112 TIP3     438      TIP3     OH2      OT      -0.834000       15.9994           0
     15113 TIP3     438      TIP3     H1       HT       0.417000       1.00800           0
     15114 TIP3     438      TIP3     H2       HT       0.417000       1.00800           0
     15115 TIP3     439      TIP3     OH2      OT      -0.834000       15.9994           0
     15116 TIP3     439      TIP3     H1       HT       0.417000       1.00800           0
     15117 TIP3     439      TIP3     H2       HT       0.417000       1.00800           0
     15118 TIP3     440      TIP3     OH2      OT      -0.834000       15.9994           0
     15119 TIP3     440      TIP3     H1       HT       0.417000       1.00800           0
     15120 TIP3     440      TIP3     H2       HT       0.417000       1.00800           0
     15121 TIP3     441      TIP3     OH2      OT      -0.834000       15.9994           0
     15122 TIP3     441      TIP3     H1       HT       0.417000       1.00800           0
     15123 TIP3     441      TIP3     H2       HT       0.417000       1.00800           0
     15124 TIP3     442      TIP3     OH2      OT      -0.834000       15.9994           0
     15125 TIP3     442      TIP3     H1       HT       0.417000       1.00800           0
     15126 TIP3     442      TIP3     H2       HT       0.417000       1.00800           0
     15127 TIP3     443      TIP3     OH2      OT      -0.834000       15.9994           0
     15128 TIP3     443      TIP3     H1       HT       0.417000       1.00800           0
     15129 TIP3     443      TIP3     H2       HT       0.417000       1.00800           0
     15130 TIP3     444      TIP3     OH2      OT      -0.834000       15.9994           0
     15131 TIP3     444      TIP3     H1       HT       0.417000       1.00800           0
     15132 TIP3     444      TIP3     H2       HT       0.417000       1.00800           0
     15133 TIP3     445      TIP3     OH2      OT      -0.834000       15.9994           0
     15134 TIP3     445      TIP3     H1       HT       0.417000       1.00800           0
     15135 TIP3     445      TIP3     H2       HT       0.417000       1.00800           0
     15136 TIP3     446      TIP3     OH2      OT      -0.834000       15.9994           0
     15137 TIP3     446      TIP3     H1       HT       0.417000       1.00800           0
     15138 TIP3     446      TIP3     H2       HT       0.417000       1.00800           0
     15139 TIP3     447      TIP3     OH2      OT      -0.834000       15.9994           0
     15140 TIP3     447      TIP3     H1       HT       0.417000       1.00800           0
     15141 TIP3     447      TIP3     H2       HT       0.417000       1.00800           0
     15142 TIP3     448      TIP3     OH2      OT      -0.834000       15.9994           0
     15143 TIP3     448      TIP3     H1       HT       0.417000       1.00800           0
     15144 TIP3     448      TIP3     H2       HT       0.417000       1.00800           0
     15145 TIP3     449      TIP3     OH2      OT      -0.834000       15.9994           0
     15146 TIP3     449      TIP3     H1       HT       0.417000       1.00800           0
     15147 TIP3     449      TIP3     H2       HT       0.417000       1.00800           0
     15148 TIP3     450      TIP3     OH2      OT      -0.834000       15.9994           0
     15149 TIP3     450      TIP3     H1       HT       0.417000       1.00800           0
     15150 TIP3     450      TIP3     H2       HT       0.417000       1.00800           0
     15151 TIP3     451      TIP3     OH2      OT      -0.834000       15.9994           0
     15152 TIP3     451      TIP3     H1       HT       0.417000       1.00800           0
     15153 TIP3     451      TIP3     H2       HT       0.417000       1.00800           0
     15154 TIP3     452      TIP3     OH2      OT      -0.834000       15.9994           0
     15155 TIP3     452      TIP3     H1       HT       0.417000       1.00800           0
     15156 TIP3     452      TIP3     H2       HT       0.417000       1.00800           0
     15157 TIP3     453      TIP3     OH2      OT      -0.834000       15.9994           0
     15158 TIP3     453      TIP3     H1       HT       0.417000       1.00800           0
     15159 TIP3     453      TIP3     H2       HT       0.417000       1.00800           0
     15160 TIP3     454      TIP3     OH2      OT      -0.834000       15.9994           0
     15161 TIP3     454      TIP3     H1       HT       0.417000       1.00800           0
     15162 TIP3     454      TIP3     H2       HT       0.417000       1.00800           0
     15163 TIP3     455      TIP3     OH2      OT      -0.834000       15.9994           0
     15164 TIP3     455      TIP3     H1       HT       0.417000       1.00800           0
     15165 TIP3     455      TIP3     H2       HT       0.417000       1.00800           0
     15166 TIP3     456      TIP3     OH2      OT      -0.834000       15.9994           0
     15167 TIP3     456      TIP3     H1       HT       0.417000       1.00800           0
     15168 TIP3     456      TIP3     H2       HT       0.417000       1.00800           0
     15169 TIP3     457      TIP3     OH2      OT      -0.834000       15.9994           0
     15170 TIP3     457      TIP3     H1       HT       0.417000       1.00800           0
     15171 TIP3     457      TIP3     H2       HT       0.417000       1.00800           0
     15172 TIP3     458      TIP3     OH2      OT      -0.834000       15.9994           0
     15173 TIP3     458      TIP3     H1       HT       0.417000       1.00800           0
     15174 TIP3     458      TIP3     H2       HT       0.417000       1.00800           0
     15175 TIP3     459      TIP3     OH2      OT      -0.834000       15.9994           0
     15176 TIP3     459      TIP3     H1       HT       0.417000       1.00800           0
     15177 TIP3     459      TIP3     H2       HT       0.417000       1.00800           0
     15178 TIP3     460      TIP3     OH2      OT      -0.834000       15.9994           0
     15179 TIP3     460      TIP3     H1       HT       0.417000       1.00800           0
     15180 TIP3     460      TIP3     H2       HT       0.417000       1.00800           0
     15181 TIP3     461      TIP3     OH2      OT      -0.834000       15.9994           0
     15182 TIP3     461      TIP3     H1       HT       0.417000       1.00800           0
     15183 TIP3     461      TIP3     H2       HT       0.417000       1.00800           0
     15184 TIP3     462      TIP3     OH2      OT      -0.834000       15.9994           0
     15185 TIP3     462      TIP3     H1       HT       0.417000       1.00800           0
     15186 TIP3     462      TIP3     H2       HT       0.417000       1.00800           0
     15187 TIP3     463      TIP3     OH2      OT      -0.834000       15.9994           0
     15188 TIP3     463      TIP3     H1       HT       0.417000       1.00800           0
     15189 TIP3     463      TIP3     H2       HT       0.417000       1.00800           0
     15190 TIP3     464      TIP3     OH2      OT      -0.834000       15.9994           0
     15191 TIP3     464      TIP3     H1       HT       0.417000       1.00800           0
     15192 TIP3     464      TIP3     H2       HT       0.417000       1.00800           0
     15193 TIP3     465      TIP3     OH2      OT      -0.834000       15.9994           0
     15194 TIP3     465      TIP3     H1       HT       0.417000       1.00800           0
     15195 TIP3     465      TIP3     H2       HT       0.417000       1.00800           0
     15196 TIP3     466      TIP3     OH2      OT      -0.834000       15.9994           0
     15197 TIP3     466      TIP3     H1       HT       0.417000       1.00800           0
     15198 TIP3     466      TIP3     H2       HT       0.417000       1.00800           0
     15199 TIP3     467      TIP3     OH2      OT      -0.834000       15.9994           0
     15200 TIP3     467      TIP3     H1       HT       0.417000       1.00800           0
     15201 TIP3     467      TIP3     H2       HT       0.417000       1.00800           0
     15202 TIP3     468      TIP3     OH2      OT      -0.834000       15.9994           0
     15203 TIP3     468      TIP3     H1       HT       0.417000       1.00800           0
     15204 TIP3     468      TIP3     H2       HT       0.417000       1.00800           0
     15205 TIP3     469      TIP3     OH2      OT      -0.834000       15.9994           0
     15206 TIP3     469      TIP3     H1       HT       0.417000       1.00800           0
     15207 TIP3     469      TIP3     H2       HT       0.417000       1.00800           0
     15208 TIP3     470      TIP3     OH2      OT      -0.834000       15.9994           0
     15209 TIP3     470      TIP3     H1       HT       0.417000       1.00800           0
     15210 TIP3     470      TIP3     H2       HT       0.417000       1.00800           0
     15211 TIP3     471      TIP3     OH2      OT      -0.834000       15.9994           0
     15212 TIP3     471      TIP3     H1       HT       0.417000       1.00800           0
     15213 TIP3     471      TIP3     H2       HT       0.417000       1.00800           0
     15214 TIP3     472      TIP3     OH2      OT      -0.834000       15.9994           0
     15215 TIP3     472      TIP3     H1       HT       0.417000       1.00800           0
     15216 TIP3     472      TIP3     H2       HT       0.417000       1.00800           0
     15217 TIP3     473      TIP3     OH2      OT      -0.834000       15.9994           0
     15218 TIP3     473      TIP3     H1       HT       0.417000       1.00800           0
     15219 TIP3     473      TIP3     H2       HT       0.417000       1.00800           0
     15220 TIP3     474      TIP3     OH2      OT      -0.834000       15.9994           0
     15221 TIP3     474      TIP3     H1       HT       0.417000       1.00800           0
     15222 TIP3     474      TIP3     H2       HT       0.417000       1.00800           0
     15223 TIP3     475      TIP3     OH2      OT      -0.834000       15.9994           0
     15224 TIP3     475      TIP3     H1       HT       0.417000       1.00800           0
     15225 TIP3     475      TIP3     H2       HT       0.417000       1.00800           0
     15226 TIP3     476      TIP3     OH2      OT      -0.834000       15.9994           0
     15227 TIP3     476      TIP3     H1       HT       0.417000       1.00800           0
     15228 TIP3     476      TIP3     H2       HT       0.417000       1.00800           0
     15229 TIP3     477      TIP3     OH2      OT      -0.834000       15.9994           0
     15230 TIP3     477      TIP3     H1       HT       0.417000       1.00800           0
     15231 TIP3     477      TIP3     H2       HT       0.417000       1.00800           0
     15232 TIP3     478      TIP3     OH2      OT      -0.834000       15.9994           0
     15233 TIP3     478      TIP3     H1       HT       0.417000       1.00800           0
     15234 TIP3     478      TIP3     H2       HT       0.417000       1.00800           0
     15235 TIP3     479      TIP3     OH2      OT      -0.834000       15.9994           0
     15236 TIP3     479      TIP3     H1       HT       0.417000       1.00800           0
     15237 TIP3     479      TIP3     H2       HT       0.417000       1.00800           0
     15238 TIP3     480      TIP3     OH2      OT      -0.834000       15.9994           0
     15239 TIP3     480      TIP3     H1       HT       0.417000       1.00800           0
     15240 TIP3     480      TIP3     H2       HT       0.417000       1.00800           0
     15241 TIP3     481      TIP3     OH2      OT      -0.834000       15.9994           0
     15242 TIP3     481      TIP3     H1       HT       0.417000       1.00800           0
     15243 TIP3     481      TIP3     H2       HT       0.417000       1.00800           0
     15244 TIP3     482      TIP3     OH2      OT      -0.834000       15.9994           0
     15245 TIP3     482      TIP3     H1       HT       0.417000       1.00800           0
     15246 TIP3     482      TIP3     H2       HT       0.417000       1.00800           0
     15247 TIP3     483      TIP3     OH2      OT      -0.834000       15.9994           0
     15248 TIP3     483      TIP3     H1       HT       0.417000       1.00800           0
     15249 TIP3     483      TIP3     H2       HT       0.417000       1.00800           0
     15250 TIP3     484      TIP3     OH2      OT      -0.834000       15.9994           0
     15251 TIP3     484      TIP3     H1       HT       0.417000       1.00800           0
     15252 TIP3     484      TIP3     H2       HT       0.417000       1.00800           0
     15253 TIP3     485      TIP3     OH2      OT      -0.834000       15.9994           0
     15254 TIP3     485      TIP3     H1       HT       0.417000       1.00800           0
     15255 TIP3     485      TIP3     H2       HT       0.417000       1.00800           0
     15256 TIP3     486      TIP3     OH2      OT      -0.834000       15.9994           0
     15257 TIP3     486      TIP3     H1       HT       0.417000       1.00800           0
     15258 TIP3     486      TIP3     H2       HT       0.417000       1.00800           0
     15259 TIP3     487      TIP3     OH2      OT      -0.834000       15.9994           0
     15260 TIP3     487      TIP3     H1       HT       0.417000       1.00800           0
     15261 TIP3     487      TIP3     H2       HT       0.417000       1.00800           0
     15262 TIP3     488      TIP3     OH2      OT      -0.834000       15.9994           0
     15263 TIP3     488      TIP3     H1       HT       0.417000       1.00800           0
     15264 TIP3     488      TIP3     H2       HT       0.417000       1.00800           0
     15265 TIP3     489      TIP3     OH2      OT      -0.834000       15.9994           0
     15266 TIP3     489      TIP3     H1       HT       0.417000       1.00800           0
     15267 TIP3     489      TIP3     H2       HT       0.417000       1.00800           0
     15268 TIP3     490      TIP3     OH2      OT      -0.834000       15.9994           0
     15269 TIP3     490      TIP3     H1       HT       0.417000       1.00800           0
     15270 TIP3     490      TIP3     H2       HT       0.417000       1.00800           0
     15271 TIP3     491      TIP3     OH2      OT      -0.834000       15.9994           0
     15272 TIP3     491      TIP3     H1       HT       0.417000       1.00800           0
     15273 TIP3     491      TIP3     H2       HT       0.417000       1.00800           0
     15274 TIP3     492      TIP3     OH2      OT      -0.834000       15.9994           0
     15275 TIP3     492      TIP3     H1       HT       0.417000       1.00800           0
     15276 TIP3     492      TIP3     H2       HT       0.417000       1.00800           0
     15277 TIP3     493      TIP3     OH2      OT      -0.834000       15.9994           0
     15278 TIP3     493      TIP3     H1       HT       0.417000       1.00800           0
     15279 TIP3     493      TIP3     H2       HT       0.417000       1.00800           0
     15280 TIP3     494      TIP3     OH2      OT      -0.834000       15.9994           0
     15281 TIP3     494      TIP3     H1       HT       0.417000       1.00800           0
     15282 TIP3     494      TIP3     H2       HT       0.417000       1.00800           0
     15283 TIP3     495      TIP3     OH2      OT      -0.834000       15.9994           0
     15284 TIP3     495      TIP3     H1       HT       0.417000       1.00800           0
     15285 TIP3     495      TIP3     H2       HT       0.417000       1.00800           0
     15286 TIP3     496      TIP3     OH2      OT      -0.834000       15.9994           0
     15287 TIP3     496      TIP3     H1       HT       0.417000       1.00800           0
     15288 TIP3     496      TIP3     H2       HT       0.417000       1.00800           0
     15289 TIP3     497      TIP3     OH2      OT      -0.834000       15.9994           0
     15290 TIP3     497      TIP3     H1       HT       0.417000       1.00800           0
     15291 TIP3     497      TIP3     H2       HT       0.417000       1.00800           0
     15292 TIP3     498      TIP3     OH2      OT      -0.834000       15.9994           0
     15293 TIP3     498      TIP3     H1       HT       0.417000       1.00800           0
     15294 TIP3     498      TIP3     H2       HT       0.417000       1.00800           0
     15295 TIP3     499      TIP3     OH2      OT      -0.834000       15.9994           0
     15296 TIP3     499      TIP3     H1       HT       0.417000       1.00800           0
     15297 TIP3     499      TIP3     H2       HT       0.417000       1.00800           0
     15298 TIP3     500      TIP3     OH2      OT      -0.834000       15.9994           0
     15299 TIP3     500      TIP3     H1       HT       0.417000       1.00800           0
     15300 TIP3     500      TIP3     H2       HT       0.417000       1.00800           0
     15301 TIP3     501      TIP3     OH2      OT      -0.834000       15.9994           0
     15302 TIP3     501      TIP3     H1       HT       0.417000       1.00800           0
     15303 TIP3     501      TIP3     H2       HT       0.417000       1.00800           0
     15304 TIP3     502      TIP3     OH2      OT      -0.834000       15.9994           0
     15305 TIP3     502      TIP3     H1       HT       0.417000       1.00800           0
     15306 TIP3     502      TIP3     H2       HT       0.417000       1.00800           0
     15307 TIP3     503      TIP3     OH2      OT      -0.834000       15.9994           0
     15308 TIP3     503      TIP3     H1       HT       0.417000       1.00800           0
     15309 TIP3     503      TIP3     H2       HT       0.417000       1.00800           0
     15310 TIP3     504      TIP3     OH2      OT      -0.834000       15.9994           0
     15311 TIP3     504      TIP3     H1       HT       0.417000       1.00800           0
     15312 TIP3     504      TIP3     H2       HT       0.417000       1.00800           0
     15313 TIP3     505      TIP3     OH2      OT      -0.834000       15.9994           0
     15314 TIP3     505      TIP3     H1       HT       0.417000       1.00800           0
     15315 TIP3     505      TIP3     H2       HT       0.417000       1.00800           0
     15316 TIP3     506      TIP3     OH2      OT      -0.834000       15.9994           0
     15317 TIP3     506      TIP3     H1       HT       0.417000       1.00800           0
     15318 TIP3     506      TIP3     H2       HT       0.417000       1.00800           0
     15319 TIP3     507      TIP3     OH2      OT      -0.834000       15.9994           0
     15320 TIP3     507      TIP3     H1       HT       0.417000       1.00800           0
     15321 TIP3     507      TIP3     H2       HT       0.417000       1.00800           0
     15322 TIP3     508      TIP3     OH2      OT      -0.834000       15.9994           0
     15323 TIP3     508      TIP3     H1       HT       0.417000       1.00800           0
     15324 TIP3     508      TIP3     H2       HT       0.417000       1.00800           0
     15325 TIP3     509      TIP3     OH2      OT      -0.834000       15.9994           0
     15326 TIP3     509      TIP3     H1       HT       0.417000       1.00800           0
     15327 TIP3     509      TIP3     H2       HT       0.417000       1.00800           0
     15328 TIP3     510      TIP3     OH2      OT      -0.834000       15.9994           0
     15329 TIP3     510      TIP3     H1       HT       0.417000       1.00800           0
     15330 TIP3     510      TIP3     H2       HT       0.417000       1.00800           0
     15331 TIP3     511      TIP3     OH2      OT      -0.834000       15.9994           0
     15332 TIP3     511      TIP3     H1       HT       0.417000       1.00800           0
     15333 TIP3     511      TIP3     H2       HT       0.417000       1.00800           0
     15334 TIP3     512      TIP3     OH2      OT      -0.834000       15.9994           0
     15335 TIP3     512      TIP3     H1       HT       0.417000       1.00800           0
     15336 TIP3     512      TIP3     H2       HT       0.417000       1.00800           0
     15337 TIP3     513      TIP3     OH2      OT      -0.834000       15.9994           0
     15338 TIP3     513      TIP3     H1       HT       0.417000       1.00800           0
     15339 TIP3     513      TIP3     H2       HT       0.417000       1.00800           0
     15340 TIP3     514      TIP3     OH2      OT      -0.834000       15.9994           0
     15341 TIP3     514      TIP3     H1       HT       0.417000       1.00800           0
     15342 TIP3     514      TIP3     H2       HT       0.417000       1.00800           0
     15343 TIP3     515      TIP3     OH2      OT      -0.834000       15.9994           0
     15344 TIP3     515      TIP3     H1       HT       0.417000       1.00800           0
     15345 TIP3     515      TIP3     H2       HT       0.417000       1.00800           0
     15346 TIP3     516      TIP3     OH2      OT      -0.834000       15.9994           0
     15347 TIP3     516      TIP3     H1       HT       0.417000       1.00800           0
     15348 TIP3     516      TIP3     H2       HT       0.417000       1.00800           0
     15349 TIP3     517      TIP3     OH2      OT      -0.834000       15.9994           0
     15350 TIP3     517      TIP3     H1       HT       0.417000       1.00800           0
     15351 TIP3     517      TIP3     H2       HT       0.417000       1.00800           0
     15352 TIP3     518      TIP3     OH2      OT      -0.834000       15.9994           0
     15353 TIP3     518      TIP3     H1       HT       0.417000       1.00800           0
     15354 TIP3     518      TIP3     H2       HT       0.417000       1.00800           0
     15355 TIP3     519      TIP3     OH2      OT      -0.834000       15.9994           0
     15356 TIP3     519      TIP3     H1       HT       0.417000       1.00800           0
     15357 TIP3     519      TIP3     H2       HT       0.417000       1.00800           0
     15358 TIP3     520      TIP3     OH2      OT      -0.834000       15.9994           0
     15359 TIP3     520      TIP3     H1       HT       0.417000       1.00800           0
     15360 TIP3     520      TIP3     H2       HT       0.417000       1.00800           0
     15361 TIP3     521      TIP3     OH2      OT      -0.834000       15.9994           0
     15362 TIP3     521      TIP3     H1       HT       0.417000       1.00800           0
     15363 TIP3     521      TIP3     H2       HT       0.417000       1.00800           0
     15364 TIP3     522      TIP3     OH2      OT      -0.834000       15.9994           0
     15365 TIP3     522      TIP3     H1       HT       0.417000       1.00800           0
     15366 TIP3     522      TIP3     H2       HT       0.417000       1.00800           0
     15367 TIP3     523      TIP3     OH2      OT      -0.834000       15.9994           0
     15368 TIP3     523      TIP3     H1       HT       0.417000       1.00800           0
     15369 TIP3     523      TIP3     H2       HT       0.417000       1.00800           0
     15370 TIP3     524      TIP3     OH2      OT      -0.834000       15.9994           0
     15371 TIP3     524      TIP3     H1       HT       0.417000       1.00800           0
     15372 TIP3     524      TIP3     H2       HT       0.417000       1.00800           0
     15373 TIP3     525      TIP3     OH2      OT      -0.834000       15.9994           0
     15374 TIP3     525      TIP3     H1       HT       0.417000       1.00800           0
     15375 TIP3     525      TIP3     H2       HT       0.417000       1.00800           0
     15376 TIP3     526      TIP3     OH2      OT      -0.834000       15.9994           0
     15377 TIP3     526      TIP3     H1       HT       0.417000       1.00800           0
     15378 TIP3     526      TIP3     H2       HT       0.417000       1.00800           0
     15379 TIP3     527      TIP3     OH2      OT      -0.834000       15.9994           0
     15380 TIP3     527      TIP3     H1       HT       0.417000       1.00800           0
     15381 TIP3     527      TIP3     H2       HT       0.417000       1.00800           0
     15382 TIP3     528      TIP3     OH2      OT      -0.834000       15.9994           0
     15383 TIP3     528      TIP3     H1       HT       0.417000       1.00800           0
     15384 TIP3     528      TIP3     H2       HT       0.417000       1.00800           0
     15385 TIP3     529      TIP3     OH2      OT      -0.834000       15.9994           0
     15386 TIP3     529      TIP3     H1       HT       0.417000       1.00800           0
     15387 TIP3     529      TIP3     H2       HT       0.417000       1.00800           0
     15388 TIP3     530      TIP3     OH2      OT      -0.834000       15.9994           0
     15389 TIP3     530      TIP3     H1       HT       0.417000       1.00800           0
     15390 TIP3     530      TIP3     H2       HT       0.417000       1.00800           0
     15391 TIP3     531      TIP3     OH2      OT      -0.834000       15.9994           0
     15392 TIP3     531      TIP3     H1       HT       0.417000       1.00800           0
     15393 TIP3     531      TIP3     H2       HT       0.417000       1.00800           0
     15394 TIP3     532      TIP3     OH2      OT      -0.834000       15.9994           0
     15395 TIP3     532      TIP3     H1       HT       0.417000       1.00800           0
     15396 TIP3     532      TIP3     H2       HT       0.417000       1.00800           0
     15397 TIP3     533      TIP3     OH2      OT      -0.834000       15.9994           0
     15398 TIP3     533      TIP3     H1       HT       0.417000       1.00800           0
     15399 TIP3     533      TIP3     H2       HT       0.417000       1.00800           0
     15400 TIP3     534      TIP3     OH2      OT      -0.834000       15.9994           0
     15401 TIP3     534      TIP3     H1       HT       0.417000       1.00800           0
     15402 TIP3     534      TIP3     H2       HT       0.417000       1.00800           0
     15403 TIP3     535      TIP3     OH2      OT      -0.834000       15.9994           0
     15404 TIP3     535      TIP3     H1       HT       0.417000       1.00800           0
     15405 TIP3     535      TIP3     H2       HT       0.417000       1.00800           0
     15406 TIP3     536      TIP3     OH2      OT      -0.834000       15.9994           0
     15407 TIP3     536      TIP3     H1       HT       0.417000       1.00800           0
     15408 TIP3     536      TIP3     H2       HT       0.417000       1.00800           0
     15409 TIP3     537      TIP3     OH2      OT      -0.834000       15.9994           0
     15410 TIP3     537      TIP3     H1       HT       0.417000       1.00800           0
     15411 TIP3     537      TIP3     H2       HT       0.417000       1.00800           0
     15412 TIP3     538      TIP3     OH2      OT      -0.834000       15.9994           0
     15413 TIP3     538      TIP3     H1       HT       0.417000       1.00800           0
     15414 TIP3     538      TIP3     H2       HT       0.417000       1.00800           0
     15415 TIP3     539      TIP3     OH2      OT      -0.834000       15.9994           0
     15416 TIP3     539      TIP3     H1       HT       0.417000       1.00800           0
     15417 TIP3     539      TIP3     H2       HT       0.417000       1.00800           0
     15418 TIP3     540      TIP3     OH2      OT      -0.834000       15.9994           0
     15419 TIP3     540      TIP3     H1       HT       0.417000       1.00800           0
     15420 TIP3     540      TIP3     H2       HT       0.417000       1.00800           0
     15421 TIP3     541      TIP3     OH2      OT      -0.834000       15.9994           0
     15422 TIP3     541      TIP3     H1       HT       0.417000       1.00800           0
     15423 TIP3     541      TIP3     H2       HT       0.417000       1.00800           0
     15424 TIP3     542      TIP3     OH2      OT      -0.834000       15.9994           0
     15425 TIP3     542      TIP3     H1       HT       0.417000       1.00800           0
     15426 TIP3     542      TIP3     H2       HT       0.417000       1.00800           0
     15427 TIP3     543      TIP3     OH2      OT      -0.834000       15.9994           0
     15428 TIP3     543      TIP3     H1       HT       0.417000       1.00800           0
     15429 TIP3     543      TIP3     H2       HT       0.417000       1.00800           0
     15430 TIP3     544      TIP3     OH2      OT      -0.834000       15.9994           0
     15431 TIP3     544      TIP3     H1       HT       0.417000       1.00800           0
     15432 TIP3     544      TIP3     H2       HT       0.417000       1.00800           0
     15433 TIP3     545      TIP3     OH2      OT      -0.834000       15.9994           0
     15434 TIP3     545      TIP3     H1       HT       0.417000       1.00800           0
     15435 TIP3     545      TIP3     H2       HT       0.417000       1.00800           0
     15436 TIP3     546      TIP3     OH2      OT      -0.834000       15.9994           0
     15437 TIP3     546      TIP3     H1       HT       0.417000       1.00800           0
     15438 TIP3     546      TIP3     H2       HT       0.417000       1.00800           0
     15439 TIP3     547      TIP3     OH2      OT      -0.834000       15.9994           0
     15440 TIP3     547      TIP3     H1       HT       0.417000       1.00800           0
     15441 TIP3     547      TIP3     H2       HT       0.417000       1.00800           0
     15442 TIP3     548      TIP3     OH2      OT      -0.834000       15.9994           0
     15443 TIP3     548      TIP3     H1       HT       0.417000       1.00800           0
     15444 TIP3     548      TIP3     H2       HT       0.417000       1.00800           0
     15445 TIP3     549      TIP3     OH2      OT      -0.834000       15.9994           0
     15446 TIP3     549      TIP3     H1       HT       0.417000       1.00800           0
     15447 TIP3     549      TIP3     H2       HT       0.417000       1.00800           0
     15448 TIP3     550      TIP3     OH2      OT      -0.834000       15.9994           0
     15449 TIP3     550      TIP3     H1       HT       0.417000       1.00800           0
     15450 TIP3     550      TIP3     H2       HT       0.417000       1.00800           0
     15451 TIP3     551      TIP3     OH2      OT      -0.834000       15.9994           0
     15452 TIP3     551      TIP3     H1       HT       0.417000       1.00800           0
     15453 TIP3     551      TIP3     H2       HT       0.417000       1.00800           0
     15454 TIP3     552      TIP3     OH2      OT      -0.834000       15.9994           0
     15455 TIP3     552      TIP3     H1       HT       0.417000       1.00800           0
     15456 TIP3     552      TIP3     H2       HT       0.417000       1.00800           0
     15457 TIP3     553      TIP3     OH2      OT      -0.834000       15.9994           0
     15458 TIP3     553      TIP3     H1       HT       0.417000       1.00800           0
     15459 TIP3     553      TIP3     H2       HT       0.417000       1.00800           0
     15460 TIP3     554      TIP3     OH2      OT      -0.834000       15.9994           0
     15461 TIP3     554      TIP3     H1       HT       0.417000       1.00800           0
     15462 TIP3     554      TIP3     H2       HT       0.417000       1.00800           0
     15463 TIP3     555      TIP3     OH2      OT      -0.834000       15.9994           0
     15464 TIP3     555      TIP3     H1       HT       0.417000       1.00800           0
     15465 TIP3     555      TIP3     H2       HT       0.417000       1.00800           0
     15466 TIP3     556      TIP3     OH2      OT      -0.834000       15.9994           0
     15467 TIP3     556      TIP3     H1       HT       0.417000       1.00800           0
     15468 TIP3     556      TIP3     H2       HT       0.417000       1.00800           0
     15469 TIP3     557      TIP3     OH2      OT      -0.834000       15.9994           0
     15470 TIP3     557      TIP3     H1       HT       0.417000       1.00800           0
     15471 TIP3     557      TIP3     H2       HT       0.417000       1.00800           0
     15472 TIP3     558      TIP3     OH2      OT      -0.834000       15.9994           0
     15473 TIP3     558      TIP3     H1       HT       0.417000       1.00800           0
     15474 TIP3     558      TIP3     H2       HT       0.417000       1.00800           0
     15475 TIP3     559      TIP3     OH2      OT      -0.834000       15.9994           0
     15476 TIP3     559      TIP3     H1       HT       0.417000       1.00800           0
     15477 TIP3     559      TIP3     H2       HT       0.417000       1.00800           0
     15478 TIP3     560      TIP3     OH2      OT      -0.834000       15.9994           0
     15479 TIP3     560      TIP3     H1       HT       0.417000       1.00800           0
     15480 TIP3     560      TIP3     H2       HT       0.417000       1.00800           0
     15481 TIP3     561      TIP3     OH2      OT      -0.834000       15.9994           0
     15482 TIP3     561      TIP3     H1       HT       0.417000       1.00800           0
     15483 TIP3     561      TIP3     H2       HT       0.417000       1.00800           0
     15484 TIP3     562      TIP3     OH2      OT      -0.834000       15.9994           0
     15485 TIP3     562      TIP3     H1       HT       0.417000       1.00800           0
     15486 TIP3     562      TIP3     H2       HT       0.417000       1.00800           0
     15487 TIP3     563      TIP3     OH2      OT      -0.834000       15.9994           0
     15488 TIP3     563      TIP3     H1       HT       0.417000       1.00800           0
     15489 TIP3     563      TIP3     H2       HT       0.417000       1.00800           0
     15490 TIP3     564      TIP3     OH2      OT      -0.834000       15.9994           0
     15491 TIP3     564      TIP3     H1       HT       0.417000       1.00800           0
     15492 TIP3     564      TIP3     H2       HT       0.417000       1.00800           0
     15493 TIP3     565      TIP3     OH2      OT      -0.834000       15.9994           0
     15494 TIP3     565      TIP3     H1       HT       0.417000       1.00800           0
     15495 TIP3     565      TIP3     H2       HT       0.417000       1.00800           0
     15496 TIP3     566      TIP3     OH2      OT      -0.834000       15.9994           0
     15497 TIP3     566      TIP3     H1       HT       0.417000       1.00800           0
     15498 TIP3     566      TIP3     H2       HT       0.417000       1.00800           0
     15499 TIP3     567      TIP3     OH2      OT      -0.834000       15.9994           0
     15500 TIP3     567      TIP3     H1       HT       0.417000       1.00800           0
     15501 TIP3     567      TIP3     H2       HT       0.417000       1.00800           0
     15502 TIP3     568      TIP3     OH2      OT      -0.834000       15.9994           0
     15503 TIP3     568      TIP3     H1       HT       0.417000       1.00800           0
     15504 TIP3     568      TIP3     H2       HT       0.417000       1.00800           0
     15505 TIP3     569      TIP3     OH2      OT      -0.834000       15.9994           0
     15506 TIP3     569      TIP3     H1       HT       0.417000       1.00800           0
     15507 TIP3     569      TIP3     H2       HT       0.417000       1.00800           0
     15508 TIP3     570      TIP3     OH2      OT      -0.834000       15.9994           0
     15509 TIP3     570      TIP3     H1       HT       0.417000       1.00800           0
     15510 TIP3     570      TIP3     H2       HT       0.417000       1.00800           0
     15511 TIP3     571      TIP3     OH2      OT      -0.834000       15.9994           0
     15512 TIP3     571      TIP3     H1       HT       0.417000       1.00800           0
     15513 TIP3     571      TIP3     H2       HT       0.417000       1.00800           0
     15514 TIP3     572      TIP3     OH2      OT      -0.834000       15.9994           0
     15515 TIP3     572      TIP3     H1       HT       0.417000       1.00800           0
     15516 TIP3     572      TIP3     H2       HT       0.417000       1.00800           0
     15517 TIP3     573      TIP3     OH2      OT      -0.834000       15.9994           0
     15518 TIP3     573      TIP3     H1       HT       0.417000       1.00800           0
     15519 TIP3     573      TIP3     H2       HT       0.417000       1.00800           0
     15520 TIP3     574      TIP3     OH2      OT      -0.834000       15.9994           0
     15521 TIP3     574      TIP3     H1       HT       0.417000       1.00800           0
     15522 TIP3     574      TIP3     H2       HT       0.417000       1.00800           0
     15523 TIP3     575      TIP3     OH2      OT      -0.834000       15.9994           0
     15524 TIP3     575      TIP3     H1       HT       0.417000       1.00800           0
     15525 TIP3     575      TIP3     H2       HT       0.417000       1.00800           0
     15526 TIP3     576      TIP3     OH2      OT      -0.834000       15.9994           0
     15527 TIP3     576      TIP3     H1       HT       0.417000       1.00800           0
     15528 TIP3     576      TIP3     H2       HT       0.417000       1.00800           0
     15529 TIP3     577      TIP3     OH2      OT      -0.834000       15.9994           0
     15530 TIP3     577      TIP3     H1       HT       0.417000       1.00800           0
     15531 TIP3     577      TIP3     H2       HT       0.417000       1.00800           0
     15532 TIP3     578      TIP3     OH2      OT      -0.834000       15.9994           0
     15533 TIP3     578      TIP3     H1       HT       0.417000       1.00800           0
     15534 TIP3     578      TIP3     H2       HT       0.417000       1.00800           0
     15535 TIP3     579      TIP3     OH2      OT      -0.834000       15.9994           0
     15536 TIP3     579      TIP3     H1       HT       0.417000       1.00800           0
     15537 TIP3     579      TIP3     H2       HT       0.417000       1.00800           0
     15538 TIP3     580      TIP3     OH2      OT      -0.834000       15.9994           0
     15539 TIP3     580      TIP3     H1       HT       0.417000       1.00800           0
     15540 TIP3     580      TIP3     H2       HT       0.417000       1.00800           0
     15541 TIP3     581      TIP3     OH2      OT      -0.834000       15.9994           0
     15542 TIP3     581      TIP3     H1       HT       0.417000       1.00800           0
     15543 TIP3     581      TIP3     H2       HT       0.417000       1.00800           0
     15544 TIP3     582      TIP3     OH2      OT      -0.834000       15.9994           0
     15545 TIP3     582      TIP3     H1       HT       0.417000       1.00800           0
     15546 TIP3     582      TIP3     H2       HT       0.417000       1.00800           0
     15547 TIP3     583      TIP3     OH2      OT      -0.834000       15.9994           0
     15548 TIP3     583      TIP3     H1       HT       0.417000       1.00800           0
     15549 TIP3     583      TIP3     H2       HT       0.417000       1.00800           0
     15550 TIP3     584      TIP3     OH2      OT      -0.834000       15.9994           0
     15551 TIP3     584      TIP3     H1       HT       0.417000       1.00800           0
     15552 TIP3     584      TIP3     H2       HT       0.417000       1.00800           0
     15553 TIP3     585      TIP3     OH2      OT      -0.834000       15.9994           0
     15554 TIP3     585      TIP3     H1       HT       0.417000       1.00800           0
     15555 TIP3     585      TIP3     H2       HT       0.417000       1.00800           0
     15556 TIP3     586      TIP3     OH2      OT      -0.834000       15.9994           0
     15557 TIP3     586      TIP3     H1       HT       0.417000       1.00800           0
     15558 TIP3     586      TIP3     H2       HT       0.417000       1.00800           0
     15559 TIP3     587      TIP3     OH2      OT      -0.834000       15.9994           0
     15560 TIP3     587      TIP3     H1       HT       0.417000       1.00800           0
     15561 TIP3     587      TIP3     H2       HT       0.417000       1.00800           0
     15562 TIP3     588      TIP3     OH2      OT      -0.834000       15.9994           0
     15563 TIP3     588      TIP3     H1       HT       0.417000       1.00800           0
     15564 TIP3     588      TIP3     H2       HT       0.417000       1.00800           0
     15565 TIP3     589      TIP3     OH2      OT      -0.834000       15.9994           0
     15566 TIP3     589      TIP3     H1       HT       0.417000       1.00800           0
     15567 TIP3     589      TIP3     H2       HT       0.417000       1.00800           0
     15568 TIP3     590      TIP3     OH2      OT      -0.834000       15.9994           0
     15569 TIP3     590      TIP3     H1       HT       0.417000       1.00800           0
     15570 TIP3     590      TIP3     H2       HT       0.417000       1.00800           0
     15571 TIP3     591      TIP3     OH2      OT      -0.834000       15.9994           0
     15572 TIP3     591      TIP3     H1       HT       0.417000       1.00800           0
     15573 TIP3     591      TIP3     H2       HT       0.417000       1.00800           0
     15574 TIP3     592      TIP3     OH2      OT      -0.834000       15.9994           0
     15575 TIP3     592      TIP3     H1       HT       0.417000       1.00800           0
     15576 TIP3     592      TIP3     H2       HT       0.417000       1.00800           0
     15577 TIP3     593      TIP3     OH2      OT      -0.834000       15.9994           0
     15578 TIP3     593      TIP3     H1       HT       0.417000       1.00800           0
     15579 TIP3     593      TIP3     H2       HT       0.417000       1.00800           0
     15580 TIP3     594      TIP3     OH2      OT      -0.834000       15.9994           0
     15581 TIP3     594      TIP3     H1       HT       0.417000       1.00800           0
     15582 TIP3     594      TIP3     H2       HT       0.417000       1.00800           0
     15583 TIP3     595      TIP3     OH2      OT      -0.834000       15.9994           0
     15584 TIP3     595      TIP3     H1       HT       0.417000       1.00800           0
     15585 TIP3     595      TIP3     H2       HT       0.417000       1.00800           0
     15586 TIP3     596      TIP3     OH2      OT      -0.834000       15.9994           0
     15587 TIP3     596      TIP3     H1       HT       0.417000       1.00800           0
     15588 TIP3     596      TIP3     H2       HT       0.417000       1.00800           0
     15589 TIP3     597      TIP3     OH2      OT      -0.834000       15.9994           0
     15590 TIP3     597      TIP3     H1       HT       0.417000       1.00800           0
     15591 TIP3     597      TIP3     H2       HT       0.417000       1.00800           0
     15592 TIP3     598      TIP3     OH2      OT      -0.834000       15.9994           0
     15593 TIP3     598      TIP3     H1       HT       0.417000       1.00800           0
     15594 TIP3     598      TIP3     H2       HT       0.417000       1.00800           0
     15595 TIP3     599      TIP3     OH2      OT      -0.834000       15.9994           0
     15596 TIP3     599      TIP3     H1       HT       0.417000       1.00800           0
     15597 TIP3     599      TIP3     H2       HT       0.417000       1.00800           0
     15598 TIP3     600      TIP3     OH2      OT      -0.834000       15.9994           0
     15599 TIP3     600      TIP3     H1       HT       0.417000       1.00800           0
     15600 TIP3     600      TIP3     H2       HT       0.417000       1.00800           0
     15601 TIP3     601      TIP3     OH2      OT      -0.834000       15.9994           0
     15602 TIP3     601      TIP3     H1       HT       0.417000       1.00800           0
     15603 TIP3     601      TIP3     H2       HT       0.417000       1.00800           0
     15604 TIP3     602      TIP3     OH2      OT      -0.834000       15.9994           0
     15605 TIP3     602      TIP3     H1       HT       0.417000       1.00800           0
     15606 TIP3     602      TIP3     H2       HT       0.417000       1.00800           0
     15607 TIP3     603      TIP3     OH2      OT      -0.834000       15.9994           0
     15608 TIP3     603      TIP3     H1       HT       0.417000       1.00800           0
     15609 TIP3     603      TIP3     H2       HT       0.417000       1.00800           0
     15610 TIP3     604      TIP3     OH2      OT      -0.834000       15.9994           0
     15611 TIP3     604      TIP3     H1       HT       0.417000       1.00800           0
     15612 TIP3     604      TIP3     H2       HT       0.417000       1.00800           0
     15613 TIP3     605      TIP3     OH2      OT      -0.834000       15.9994           0
     15614 TIP3     605      TIP3     H1       HT       0.417000       1.00800           0
     15615 TIP3     605      TIP3     H2       HT       0.417000       1.00800           0
     15616 TIP3     606      TIP3     OH2      OT      -0.834000       15.9994           0
     15617 TIP3     606      TIP3     H1       HT       0.417000       1.00800           0
     15618 TIP3     606      TIP3     H2       HT       0.417000       1.00800           0
     15619 TIP3     607      TIP3     OH2      OT      -0.834000       15.9994           0
     15620 TIP3     607      TIP3     H1       HT       0.417000       1.00800           0
     15621 TIP3     607      TIP3     H2       HT       0.417000       1.00800           0
     15622 TIP3     608      TIP3     OH2      OT      -0.834000       15.9994           0
     15623 TIP3     608      TIP3     H1       HT       0.417000       1.00800           0
     15624 TIP3     608      TIP3     H2       HT       0.417000       1.00800           0
     15625 TIP3     609      TIP3     OH2      OT      -0.834000       15.9994           0
     15626 TIP3     609      TIP3     H1       HT       0.417000       1.00800           0
     15627 TIP3     609      TIP3     H2       HT       0.417000       1.00800           0
     15628 TIP3     610      TIP3     OH2      OT      -0.834000       15.9994           0
     15629 TIP3     610      TIP3     H1       HT       0.417000       1.00800           0
     15630 TIP3     610      TIP3     H2       HT       0.417000       1.00800           0
     15631 TIP3     611      TIP3     OH2      OT      -0.834000       15.9994           0
     15632 TIP3     611      TIP3     H1       HT       0.417000       1.00800           0
     15633 TIP3     611      TIP3     H2       HT       0.417000       1.00800           0
     15634 TIP3     612      TIP3     OH2      OT      -0.834000       15.9994           0
     15635 TIP3     612      TIP3     H1       HT       0.417000       1.00800           0
     15636 TIP3     612      TIP3     H2       HT       0.417000       1.00800           0
     15637 TIP3     613      TIP3     OH2      OT      -0.834000       15.9994           0
     15638 TIP3     613      TIP3     H1       HT       0.417000       1.00800           0
     15639 TIP3     613      TIP3     H2       HT       0.417000       1.00800           0
     15640 TIP3     614      TIP3     OH2      OT      -0.834000       15.9994           0
     15641 TIP3     614      TIP3     H1       HT       0.417000       1.00800           0
     15642 TIP3     614      TIP3     H2       HT       0.417000       1.00800           0
     15643 TIP3     615      TIP3     OH2      OT      -0.834000       15.9994           0
     15644 TIP3     615      TIP3     H1       HT       0.417000       1.00800           0
     15645 TIP3     615      TIP3     H2       HT       0.417000       1.00800           0
     15646 TIP3     616      TIP3     OH2      OT      -0.834000       15.9994           0
     15647 TIP3     616      TIP3     H1       HT       0.417000       1.00800           0
     15648 TIP3     616      TIP3     H2       HT       0.417000       1.00800           0
     15649 TIP3     617      TIP3     OH2      OT      -0.834000       15.9994           0
     15650 TIP3     617      TIP3     H1       HT       0.417000       1.00800           0
     15651 TIP3     617      TIP3     H2       HT       0.417000       1.00800           0
     15652 TIP3     618      TIP3     OH2      OT      -0.834000       15.9994           0
     15653 TIP3     618      TIP3     H1       HT       0.417000       1.00800           0
     15654 TIP3     618      TIP3     H2       HT       0.417000       1.00800           0
     15655 TIP3     619      TIP3     OH2      OT      -0.834000       15.9994           0
     15656 TIP3     619      TIP3     H1       HT       0.417000       1.00800           0
     15657 TIP3     619      TIP3     H2       HT       0.417000       1.00800           0
     15658 TIP3     620      TIP3     OH2      OT      -0.834000       15.9994           0
     15659 TIP3     620      TIP3     H1       HT       0.417000       1.00800           0
     15660 TIP3     620      TIP3     H2       HT       0.417000       1.00800           0
     15661 TIP3     621      TIP3     OH2      OT      -0.834000       15.9994           0
     15662 TIP3     621      TIP3     H1       HT       0.417000       1.00800           0
     15663 TIP3     621      TIP3     H2       HT       0.417000       1.00800           0
     15664 TIP3     622      TIP3     OH2      OT      -0.834000       15.9994           0
     15665 TIP3     622      TIP3     H1       HT       0.417000       1.00800           0
     15666 TIP3     622      TIP3     H2       HT       0.417000       1.00800           0
     15667 TIP3     623      TIP3     OH2      OT      -0.834000       15.9994           0
     15668 TIP3     623      TIP3     H1       HT       0.417000       1.00800           0
     15669 TIP3     623      TIP3     H2       HT       0.417000       1.00800           0
     15670 TIP3     624      TIP3     OH2      OT      -0.834000       15.9994           0
     15671 TIP3     624      TIP3     H1       HT       0.417000       1.00800           0
     15672 TIP3     624      TIP3     H2       HT       0.417000       1.00800           0
     15673 TIP3     625      TIP3     OH2      OT      -0.834000       15.9994           0
     15674 TIP3     625      TIP3     H1       HT       0.417000       1.00800           0
     15675 TIP3     625      TIP3     H2       HT       0.417000       1.00800           0
     15676 TIP3     626      TIP3     OH2      OT      -0.834000       15.9994           0
     15677 TIP3     626      TIP3     H1       HT       0.417000       1.00800           0
     15678 TIP3     626      TIP3     H2       HT       0.417000       1.00800           0
     15679 TIP3     627      TIP3     OH2      OT      -0.834000       15.9994           0
     15680 TIP3     627      TIP3     H1       HT       0.417000       1.00800           0
     15681 TIP3     627      TIP3     H2       HT       0.417000       1.00800           0
     15682 TIP3     628      TIP3     OH2      OT      -0.834000       15.9994           0
     15683 TIP3     628      TIP3     H1       HT       0.417000       1.00800           0
     15684 TIP3     628      TIP3     H2       HT       0.417000       1.00800           0
     15685 TIP3     629      TIP3     OH2      OT      -0.834000       15.9994           0
     15686 TIP3     629      TIP3     H1       HT       0.417000       1.00800           0
     15687 TIP3     629      TIP3     H2       HT       0.417000       1.00800           0
     15688 TIP3     630      TIP3     OH2      OT      -0.834000       15.9994           0
     15689 TIP3     630      TIP3     H1       HT       0.417000       1.00800           0
     15690 TIP3     630      TIP3     H2       HT       0.417000       1.00800           0
     15691 TIP3     631      TIP3     OH2      OT      -0.834000       15.9994           0
     15692 TIP3     631      TIP3     H1       HT       0.417000       1.00800           0
     15693 TIP3     631      TIP3     H2       HT       0.417000       1.00800           0
     15694 TIP3     632      TIP3     OH2      OT      -0.834000       15.9994           0
     15695 TIP3     632      TIP3     H1       HT       0.417000       1.00800           0
     15696 TIP3     632      TIP3     H2       HT       0.417000       1.00800           0
     15697 TIP3     633      TIP3     OH2      OT      -0.834000       15.9994           0
     15698 TIP3     633      TIP3     H1       HT       0.417000       1.00800           0
     15699 TIP3     633      TIP3     H2       HT       0.417000       1.00800           0
     15700 TIP3     634      TIP3     OH2      OT      -0.834000       15.9994           0
     15701 TIP3     634      TIP3     H1       HT       0.417000       1.00800           0
     15702 TIP3     634      TIP3     H2       HT       0.417000       1.00800           0
     15703 TIP3     635      TIP3     OH2      OT      -0.834000       15.9994           0
     15704 TIP3     635      TIP3     H1       HT       0.417000       1.00800           0
     15705 TIP3     635      TIP3     H2       HT       0.417000       1.00800           0
     15706 TIP3     636      TIP3     OH2      OT      -0.834000       15.9994           0
     15707 TIP3     636      TIP3     H1       HT       0.417000       1.00800           0
     15708 TIP3     636      TIP3     H2       HT       0.417000       1.00800           0
     15709 TIP3     637      TIP3     OH2      OT      -0.834000       15.9994           0
     15710 TIP3     637      TIP3     H1       HT       0.417000       1.00800           0
     15711 TIP3     637      TIP3     H2       HT       0.417000       1.00800           0
     15712 TIP3     638      TIP3     OH2      OT      -0.834000       15.9994           0
     15713 TIP3     638      TIP3     H1       HT       0.417000       1.00800           0
     15714 TIP3     638      TIP3     H2       HT       0.417000       1.00800           0
     15715 TIP3     639      TIP3     OH2      OT      -0.834000       15.9994           0
     15716 TIP3     639      TIP3     H1       HT       0.417000       1.00800           0
     15717 TIP3     639      TIP3     H2       HT       0.417000       1.00800           0
     15718 TIP3     640      TIP3     OH2      OT      -0.834000       15.9994           0
     15719 TIP3     640      TIP3     H1       HT       0.417000       1.00800           0
     15720 TIP3     640      TIP3     H2       HT       0.417000       1.00800           0
     15721 TIP3     641      TIP3     OH2      OT      -0.834000       15.9994           0
     15722 TIP3     641      TIP3     H1       HT       0.417000       1.00800           0
     15723 TIP3     641      TIP3     H2       HT       0.417000       1.00800           0
     15724 TIP3     642      TIP3     OH2      OT      -0.834000       15.9994           0
     15725 TIP3     642      TIP3     H1       HT       0.417000       1.00800           0
     15726 TIP3     642      TIP3     H2       HT       0.417000       1.00800           0
     15727 TIP3     643      TIP3     OH2      OT      -0.834000       15.9994           0
     15728 TIP3     643      TIP3     H1       HT       0.417000       1.00800           0
     15729 TIP3     643      TIP3     H2       HT       0.417000       1.00800           0
     15730 TIP3     644      TIP3     OH2      OT      -0.834000       15.9994           0
     15731 TIP3     644      TIP3     H1       HT       0.417000       1.00800           0
     15732 TIP3     644      TIP3     H2       HT       0.417000       1.00800           0
     15733 TIP3     645      TIP3     OH2      OT      -0.834000       15.9994           0
     15734 TIP3     645      TIP3     H1       HT       0.417000       1.00800           0
     15735 TIP3     645      TIP3     H2       HT       0.417000       1.00800           0
     15736 TIP3     646      TIP3     OH2      OT      -0.834000       15.9994           0
     15737 TIP3     646      TIP3     H1       HT       0.417000       1.00800           0
     15738 TIP3     646      TIP3     H2       HT       0.417000       1.00800           0
     15739 TIP3     647      TIP3     OH2      OT      -0.834000       15.9994           0
     15740 TIP3     647      TIP3     H1       HT       0.417000       1.00800           0
     15741 TIP3     647      TIP3     H2       HT       0.417000       1.00800           0
     15742 TIP3     648      TIP3     OH2      OT      -0.834000       15.9994           0
     15743 TIP3     648      TIP3     H1       HT       0.417000       1.00800           0
     15744 TIP3     648      TIP3     H2       HT       0.417000       1.00800           0
     15745 TIP3     649      TIP3     OH2      OT      -0.834000       15.9994           0
     15746 TIP3     649      TIP3     H1       HT       0.417000       1.00800           0
     15747 TIP3     649      TIP3     H2       HT       0.417000       1.00800           0
     15748 TIP3     650      TIP3     OH2      OT      -0.834000       15.9994           0
     15749 TIP3     650      TIP3     H1       HT       0.417000       1.00800           0
     15750 TIP3     650      TIP3     H2       HT       0.417000       1.00800           0
     15751 TIP3     651      TIP3     OH2      OT      -0.834000       15.9994           0
     15752 TIP3     651      TIP3     H1       HT       0.417000       1.00800           0
     15753 TIP3     651      TIP3     H2       HT       0.417000       1.00800           0
     15754 TIP3     652      TIP3     OH2      OT      -0.834000       15.9994           0
     15755 TIP3     652      TIP3     H1       HT       0.417000       1.00800           0
     15756 TIP3     652      TIP3     H2       HT       0.417000       1.00800           0
     15757 TIP3     653      TIP3     OH2      OT      -0.834000       15.9994           0
     15758 TIP3     653      TIP3     H1       HT       0.417000       1.00800           0
     15759 TIP3     653      TIP3     H2       HT       0.417000       1.00800           0
     15760 TIP3     654      TIP3     OH2      OT      -0.834000       15.9994           0
     15761 TIP3     654      TIP3     H1       HT       0.417000       1.00800           0
     15762 TIP3     654      TIP3     H2       HT       0.417000       1.00800           0
     15763 TIP3     655      TIP3     OH2      OT      -0.834000       15.9994           0
     15764 TIP3     655      TIP3     H1       HT       0.417000       1.00800           0
     15765 TIP3     655      TIP3     H2       HT       0.417000       1.00800           0
     15766 TIP3     656      TIP3     OH2      OT      -0.834000       15.9994           0
     15767 TIP3     656      TIP3     H1       HT       0.417000       1.00800           0
     15768 TIP3     656      TIP3     H2       HT       0.417000       1.00800           0
     15769 TIP3     657      TIP3     OH2      OT      -0.834000       15.9994           0
     15770 TIP3     657      TIP3     H1       HT       0.417000       1.00800           0
     15771 TIP3     657      TIP3     H2       HT       0.417000       1.00800           0
     15772 TIP3     658      TIP3     OH2      OT      -0.834000       15.9994           0
     15773 TIP3     658      TIP3     H1       HT       0.417000       1.00800           0
     15774 TIP3     658      TIP3     H2       HT       0.417000       1.00800           0
     15775 TIP3     659      TIP3     OH2      OT      -0.834000       15.9994           0
     15776 TIP3     659      TIP3     H1       HT       0.417000       1.00800           0
     15777 TIP3     659      TIP3     H2       HT       0.417000       1.00800           0
     15778 TIP3     660      TIP3     OH2      OT      -0.834000       15.9994           0
     15779 TIP3     660      TIP3     H1       HT       0.417000       1.00800           0
     15780 TIP3     660      TIP3     H2       HT       0.417000       1.00800           0
     15781 TIP3     661      TIP3     OH2      OT      -0.834000       15.9994           0
     15782 TIP3     661      TIP3     H1       HT       0.417000       1.00800           0
     15783 TIP3     661      TIP3     H2       HT       0.417000       1.00800           0
     15784 TIP3     662      TIP3     OH2      OT      -0.834000       15.9994           0
     15785 TIP3     662      TIP3     H1       HT       0.417000       1.00800           0
     15786 TIP3     662      TIP3     H2       HT       0.417000       1.00800           0
     15787 TIP3     663      TIP3     OH2      OT      -0.834000       15.9994           0
     15788 TIP3     663      TIP3     H1       HT       0.417000       1.00800           0
     15789 TIP3     663      TIP3     H2       HT       0.417000       1.00800           0
     15790 TIP3     664      TIP3     OH2      OT      -0.834000       15.9994           0
     15791 TIP3     664      TIP3     H1       HT       0.417000       1.00800           0
     15792 TIP3     664      TIP3     H2       HT       0.417000       1.00800           0
     15793 TIP3     665      TIP3     OH2      OT      -0.834000       15.9994           0
     15794 TIP3     665      TIP3     H1       HT       0.417000       1.00800           0
     15795 TIP3     665      TIP3     H2       HT       0.417000       1.00800           0
     15796 TIP3     666      TIP3     OH2      OT      -0.834000       15.9994           0
     15797 TIP3     666      TIP3     H1       HT       0.417000       1.00800           0
     15798 TIP3     666      TIP3     H2       HT       0.417000       1.00800           0
     15799 TIP3     667      TIP3     OH2      OT      -0.834000       15.9994           0
     15800 TIP3     667      TIP3     H1       HT       0.417000       1.00800           0
     15801 TIP3     667      TIP3     H2       HT       0.417000       1.00800           0
     15802 TIP3     668      TIP3     OH2      OT      -0.834000       15.9994           0
     15803 TIP3     668      TIP3     H1       HT       0.417000       1.00800           0
     15804 TIP3     668      TIP3     H2       HT       0.417000       1.00800           0
     15805 TIP3     669      TIP3     OH2      OT      -0.834000       15.9994           0
     15806 TIP3     669      TIP3     H1       HT       0.417000       1.00800           0
     15807 TIP3     669      TIP3     H2       HT       0.417000       1.00800           0
     15808 TIP3     670      TIP3     OH2      OT      -0.834000       15.9994           0
     15809 TIP3     670      TIP3     H1       HT       0.417000       1.00800           0
     15810 TIP3     670      TIP3     H2       HT       0.417000       1.00800           0
     15811 TIP3     671      TIP3     OH2      OT      -0.834000       15.9994           0
     15812 TIP3     671      TIP3     H1       HT       0.417000       1.00800           0
     15813 TIP3     671      TIP3     H2       HT       0.417000       1.00800           0
     15814 TIP3     672      TIP3     OH2      OT      -0.834000       15.9994           0
     15815 TIP3     672      TIP3     H1       HT       0.417000       1.00800           0
     15816 TIP3     672      TIP3     H2       HT       0.417000       1.00800           0
     15817 TIP3     673      TIP3     OH2      OT      -0.834000       15.9994           0
     15818 TIP3     673      TIP3     H1       HT       0.417000       1.00800           0
     15819 TIP3     673      TIP3     H2       HT       0.417000       1.00800           0
     15820 TIP3     674      TIP3     OH2      OT      -0.834000       15.9994           0
     15821 TIP3     674      TIP3     H1       HT       0.417000       1.00800           0
     15822 TIP3     674      TIP3     H2       HT       0.417000       1.00800           0
     15823 TIP3     675      TIP3     OH2      OT      -0.834000       15.9994           0
     15824 TIP3     675      TIP3     H1       HT       0.417000       1.00800           0
     15825 TIP3     675      TIP3     H2       HT       0.417000       1.00800           0
     15826 TIP3     676      TIP3     OH2      OT      -0.834000       15.9994           0
     15827 TIP3     676      TIP3     H1       HT       0.417000       1.00800           0
     15828 TIP3     676      TIP3     H2       HT       0.417000       1.00800           0
     15829 TIP3     677      TIP3     OH2      OT      -0.834000       15.9994           0
     15830 TIP3     677      TIP3     H1       HT       0.417000       1.00800           0
     15831 TIP3     677      TIP3     H2       HT       0.417000       1.00800           0
     15832 TIP3     678      TIP3     OH2      OT      -0.834000       15.9994           0
     15833 TIP3     678      TIP3     H1       HT       0.417000       1.00800           0
     15834 TIP3     678      TIP3     H2       HT       0.417000       1.00800           0
     15835 TIP3     679      TIP3     OH2      OT      -0.834000       15.9994           0
     15836 TIP3     679      TIP3     H1       HT       0.417000       1.00800           0
     15837 TIP3     679      TIP3     H2       HT       0.417000       1.00800           0
     15838 TIP3     680      TIP3     OH2      OT      -0.834000       15.9994           0
     15839 TIP3     680      TIP3     H1       HT       0.417000       1.00800           0
     15840 TIP3     680      TIP3     H2       HT       0.417000       1.00800           0
     15841 TIP3     681      TIP3     OH2      OT      -0.834000       15.9994           0
     15842 TIP3     681      TIP3     H1       HT       0.417000       1.00800           0
     15843 TIP3     681      TIP3     H2       HT       0.417000       1.00800           0
     15844 TIP3     682      TIP3     OH2      OT      -0.834000       15.9994           0
     15845 TIP3     682      TIP3     H1       HT       0.417000       1.00800           0
     15846 TIP3     682      TIP3     H2       HT       0.417000       1.00800           0
     15847 TIP3     683      TIP3     OH2      OT      -0.834000       15.9994           0
     15848 TIP3     683      TIP3     H1       HT       0.417000       1.00800           0
     15849 TIP3     683      TIP3     H2       HT       0.417000       1.00800           0
     15850 TIP3     684      TIP3     OH2      OT      -0.834000       15.9994           0
     15851 TIP3     684      TIP3     H1       HT       0.417000       1.00800           0
     15852 TIP3     684      TIP3     H2       HT       0.417000       1.00800           0
     15853 TIP3     685      TIP3     OH2      OT      -0.834000       15.9994           0
     15854 TIP3     685      TIP3     H1       HT       0.417000       1.00800           0
     15855 TIP3     685      TIP3     H2       HT       0.417000       1.00800           0
     15856 TIP3     686      TIP3     OH2      OT      -0.834000       15.9994           0
     15857 TIP3     686      TIP3     H1       HT       0.417000       1.00800           0
     15858 TIP3     686      TIP3     H2       HT       0.417000       1.00800           0
     15859 TIP3     687      TIP3     OH2      OT      -0.834000       15.9994           0
     15860 TIP3     687      TIP3     H1       HT       0.417000       1.00800           0
     15861 TIP3     687      TIP3     H2       HT       0.417000       1.00800           0
     15862 TIP3     688      TIP3     OH2      OT      -0.834000       15.9994           0
     15863 TIP3     688      TIP3     H1       HT       0.417000       1.00800           0
     15864 TIP3     688      TIP3     H2       HT       0.417000       1.00800           0
     15865 TIP3     689      TIP3     OH2      OT      -0.834000       15.9994           0
     15866 TIP3     689      TIP3     H1       HT       0.417000       1.00800           0
     15867 TIP3     689      TIP3     H2       HT       0.417000       1.00800           0
     15868 TIP3     690      TIP3     OH2      OT      -0.834000       15.9994           0
     15869 TIP3     690      TIP3     H1       HT       0.417000       1.00800           0
     15870 TIP3     690      TIP3     H2       HT       0.417000       1.00800           0
     15871 TIP3     691      TIP3     OH2      OT      -0.834000       15.9994           0
     15872 TIP3     691      TIP3     H1       HT       0.417000       1.00800           0
     15873 TIP3     691      TIP3     H2       HT       0.417000       1.00800           0
     15874 TIP3     692      TIP3     OH2      OT      -0.834000       15.9994           0
     15875 TIP3     692      TIP3     H1       HT       0.417000       1.00800           0
     15876 TIP3     692      TIP3     H2       HT       0.417000       1.00800           0
     15877 TIP3     693      TIP3     OH2      OT      -0.834000       15.9994           0
     15878 TIP3     693      TIP3     H1       HT       0.417000       1.00800           0
     15879 TIP3     693      TIP3     H2       HT       0.417000       1.00800           0
     15880 TIP3     694      TIP3     OH2      OT      -0.834000       15.9994           0
     15881 TIP3     694      TIP3     H1       HT       0.417000       1.00800           0
     15882 TIP3     694      TIP3     H2       HT       0.417000       1.00800           0
     15883 TIP3     695      TIP3     OH2      OT      -0.834000       15.9994           0
     15884 TIP3     695      TIP3     H1       HT       0.417000       1.00800           0
     15885 TIP3     695      TIP3     H2       HT       0.417000       1.00800           0
     15886 TIP3     696      TIP3     OH2      OT      -0.834000       15.9994           0
     15887 TIP3     696      TIP3     H1       HT       0.417000       1.00800           0
     15888 TIP3     696      TIP3     H2       HT       0.417000       1.00800           0
     15889 TIP3     697      TIP3     OH2      OT      -0.834000       15.9994           0
     15890 TIP3     697      TIP3     H1       HT       0.417000       1.00800           0
     15891 TIP3     697      TIP3     H2       HT       0.417000       1.00800           0
     15892 TIP3     698      TIP3     OH2      OT      -0.834000       15.9994           0
     15893 TIP3     698      TIP3     H1       HT       0.417000       1.00800           0
     15894 TIP3     698      TIP3     H2       HT       0.417000       1.00800           0
     15895 TIP3     699      TIP3     OH2      OT      -0.834000       15.9994           0
     15896 TIP3     699      TIP3     H1       HT       0.417000       1.00800           0
     15897 TIP3     699      TIP3     H2       HT       0.417000       1.00800           0
     15898 TIP3     700      TIP3     OH2      OT      -0.834000       15.9994           0
     15899 TIP3     700      TIP3     H1       HT       0.417000       1.00800           0
     15900 TIP3     700      TIP3     H2       HT       0.417000       1.00800           0
     15901 TIP3     701      TIP3     OH2      OT      -0.834000       15.9994           0
     15902 TIP3     701      TIP3     H1       HT       0.417000       1.00800           0
     15903 TIP3     701      TIP3     H2       HT       0.417000       1.00800           0
     15904 TIP3     702      TIP3     OH2      OT      -0.834000       15.9994           0
     15905 TIP3     702      TIP3     H1       HT       0.417000       1.00800           0
     15906 TIP3     702      TIP3     H2       HT       0.417000       1.00800           0
     15907 TIP3     703      TIP3     OH2      OT      -0.834000       15.9994           0
     15908 TIP3     703      TIP3     H1       HT       0.417000       1.00800           0
     15909 TIP3     703      TIP3     H2       HT       0.417000       1.00800           0
     15910 TIP3     704      TIP3     OH2      OT      -0.834000       15.9994           0
     15911 TIP3     704      TIP3     H1       HT       0.417000       1.00800           0
     15912 TIP3     704      TIP3     H2       HT       0.417000       1.00800           0
     15913 TIP3     705      TIP3     OH2      OT      -0.834000       15.9994           0
     15914 TIP3     705      TIP3     H1       HT       0.417000       1.00800           0
     15915 TIP3     705      TIP3     H2       HT       0.417000       1.00800           0
     15916 TIP3     706      TIP3     OH2      OT      -0.834000       15.9994           0
     15917 TIP3     706      TIP3     H1       HT       0.417000       1.00800           0
     15918 TIP3     706      TIP3     H2       HT       0.417000       1.00800           0
     15919 TIP3     707      TIP3     OH2      OT      -0.834000       15.9994           0
     15920 TIP3     707      TIP3     H1       HT       0.417000       1.00800           0
     15921 TIP3     707      TIP3     H2       HT       0.417000       1.00800           0
     15922 TIP3     708      TIP3     OH2      OT      -0.834000       15.9994           0
     15923 TIP3     708      TIP3     H1       HT       0.417000       1.00800           0
     15924 TIP3     708      TIP3     H2       HT       0.417000       1.00800           0
     15925 TIP3     709      TIP3     OH2      OT      -0.834000       15.9994           0
     15926 TIP3     709      TIP3     H1       HT       0.417000       1.00800           0
     15927 TIP3     709      TIP3     H2       HT       0.417000       1.00800           0
     15928 TIP3     710      TIP3     OH2      OT      -0.834000       15.9994           0
     15929 TIP3     710      TIP3     H1       HT       0.417000       1.00800           0
     15930 TIP3     710      TIP3     H2       HT       0.417000       1.00800           0
     15931 TIP3     711      TIP3     OH2      OT      -0.834000       15.9994           0
     15932 TIP3     711      TIP3     H1       HT       0.417000       1.00800           0
     15933 TIP3     711      TIP3     H2       HT       0.417000       1.00800           0
     15934 TIP3     712      TIP3     OH2      OT      -0.834000       15.9994           0
     15935 TIP3     712      TIP3     H1       HT       0.417000       1.00800           0
     15936 TIP3     712      TIP3     H2       HT       0.417000       1.00800           0
     15937 TIP3     713      TIP3     OH2      OT      -0.834000       15.9994           0
     15938 TIP3     713      TIP3     H1       HT       0.417000       1.00800           0
     15939 TIP3     713      TIP3     H2       HT       0.417000       1.00800           0
     15940 TIP3     714      TIP3     OH2      OT      -0.834000       15.9994           0
     15941 TIP3     714      TIP3     H1       HT       0.417000       1.00800           0
     15942 TIP3     714      TIP3     H2       HT       0.417000       1.00800           0
     15943 TIP3     715      TIP3     OH2      OT      -0.834000       15.9994           0
     15944 TIP3     715      TIP3     H1       HT       0.417000       1.00800           0
     15945 TIP3     715      TIP3     H2       HT       0.417000       1.00800           0
     15946 TIP3     716      TIP3     OH2      OT      -0.834000       15.9994           0
     15947 TIP3     716      TIP3     H1       HT       0.417000       1.00800           0
     15948 TIP3     716      TIP3     H2       HT       0.417000       1.00800           0
     15949 TIP3     717      TIP3     OH2      OT      -0.834000       15.9994           0
     15950 TIP3     717      TIP3     H1       HT       0.417000       1.00800           0
     15951 TIP3     717      TIP3     H2       HT       0.417000       1.00800           0
     15952 TIP3     718      TIP3     OH2      OT      -0.834000       15.9994           0
     15953 TIP3     718      TIP3     H1       HT       0.417000       1.00800           0
     15954 TIP3     718      TIP3     H2       HT       0.417000       1.00800           0
     15955 TIP3     719      TIP3     OH2      OT      -0.834000       15.9994           0
     15956 TIP3     719      TIP3     H1       HT       0.417000       1.00800           0
     15957 TIP3     719      TIP3     H2       HT       0.417000       1.00800           0
     15958 TIP3     720      TIP3     OH2      OT      -0.834000       15.9994           0
     15959 TIP3     720      TIP3     H1       HT       0.417000       1.00800           0
     15960 TIP3     720      TIP3     H2       HT       0.417000       1.00800           0
     15961 TIP3     721      TIP3     OH2      OT      -0.834000       15.9994           0
     15962 TIP3     721      TIP3     H1       HT       0.417000       1.00800           0
     15963 TIP3     721      TIP3     H2       HT       0.417000       1.00800           0
     15964 TIP3     722      TIP3     OH2      OT      -0.834000       15.9994           0
     15965 TIP3     722      TIP3     H1       HT       0.417000       1.00800           0
     15966 TIP3     722      TIP3     H2       HT       0.417000       1.00800           0
     15967 TIP3     723      TIP3     OH2      OT      -0.834000       15.9994           0
     15968 TIP3     723      TIP3     H1       HT       0.417000       1.00800           0
     15969 TIP3     723      TIP3     H2       HT       0.417000       1.00800           0
     15970 TIP3     724      TIP3     OH2      OT      -0.834000       15.9994           0
     15971 TIP3     724      TIP3     H1       HT       0.417000       1.00800           0
     15972 TIP3     724      TIP3     H2       HT       0.417000       1.00800           0
     15973 TIP3     725      TIP3     OH2      OT      -0.834000       15.9994           0
     15974 TIP3     725      TIP3     H1       HT       0.417000       1.00800           0
     15975 TIP3     725      TIP3     H2       HT       0.417000       1.00800           0
     15976 TIP3     726      TIP3     OH2      OT      -0.834000       15.9994           0
     15977 TIP3     726      TIP3     H1       HT       0.417000       1.00800           0
     15978 TIP3     726      TIP3     H2       HT       0.417000       1.00800           0
     15979 TIP3     727      TIP3     OH2      OT      -0.834000       15.9994           0
     15980 TIP3     727      TIP3     H1       HT       0.417000       1.00800           0
     15981 TIP3     727      TIP3     H2       HT       0.417000       1.00800           0
     15982 TIP3     728      TIP3     OH2      OT      -0.834000       15.9994           0
     15983 TIP3     728      TIP3     H1       HT       0.417000       1.00800           0
     15984 TIP3     728      TIP3     H2       HT       0.417000       1.00800           0
     15985 TIP3     729      TIP3     OH2      OT      -0.834000       15.9994           0
     15986 TIP3     729      TIP3     H1       HT       0.417000       1.00800           0
     15987 TIP3     729      TIP3     H2       HT       0.417000       1.00800           0
     15988 TIP3     730      TIP3     OH2      OT      -0.834000       15.9994           0
     15989 TIP3     730      TIP3     H1       HT       0.417000       1.00800           0
     15990 TIP3     730      TIP3     H2       HT       0.417000       1.00800           0
     15991 TIP3     731      TIP3     OH2      OT      -0.834000       15.9994           0
     15992 TIP3     731      TIP3     H1       HT       0.417000       1.00800           0
     15993 TIP3     731      TIP3     H2       HT       0.417000       1.00800           0
     15994 TIP3     732      TIP3     OH2      OT      -0.834000       15.9994           0
     15995 TIP3     732      TIP3     H1       HT       0.417000       1.00800           0
     15996 TIP3     732      TIP3     H2       HT       0.417000       1.00800           0
     15997 TIP3     733      TIP3     OH2      OT      -0.834000       15.9994           0
     15998 TIP3     733      TIP3     H1       HT       0.417000       1.00800           0
     15999 TIP3     733      TIP3     H2       HT       0.417000       1.00800           0
     16000 TIP3     734      TIP3     OH2      OT      -0.834000       15.9994           0
     16001 TIP3     734      TIP3     H1       HT       0.417000       1.00800           0
     16002 TIP3     734      TIP3     H2       HT       0.417000       1.00800           0
     16003 TIP3     735      TIP3     OH2      OT      -0.834000       15.9994           0
     16004 TIP3     735      TIP3     H1       HT       0.417000       1.00800           0
     16005 TIP3     735      TIP3     H2       HT       0.417000       1.00800           0
     16006 TIP3     736      TIP3     OH2      OT      -0.834000       15.9994           0
     16007 TIP3     736      TIP3     H1       HT       0.417000       1.00800           0
     16008 TIP3     736      TIP3     H2       HT       0.417000       1.00800           0
     16009 TIP3     737      TIP3     OH2      OT      -0.834000       15.9994           0
     16010 TIP3     737      TIP3     H1       HT       0.417000       1.00800           0
     16011 TIP3     737      TIP3     H2       HT       0.417000       1.00800           0
     16012 TIP3     738      TIP3     OH2      OT      -0.834000       15.9994           0
     16013 TIP3     738      TIP3     H1       HT       0.417000       1.00800           0
     16014 TIP3     738      TIP3     H2       HT       0.417000       1.00800           0
     16015 TIP3     739      TIP3     OH2      OT      -0.834000       15.9994           0
     16016 TIP3     739      TIP3     H1       HT       0.417000       1.00800           0
     16017 TIP3     739      TIP3     H2       HT       0.417000       1.00800           0
     16018 TIP3     740      TIP3     OH2      OT      -0.834000       15.9994           0
     16019 TIP3     740      TIP3     H1       HT       0.417000       1.00800           0
     16020 TIP3     740      TIP3     H2       HT       0.417000       1.00800           0
     16021 TIP3     741      TIP3     OH2      OT      -0.834000       15.9994           0
     16022 TIP3     741      TIP3     H1       HT       0.417000       1.00800           0
     16023 TIP3     741      TIP3     H2       HT       0.417000       1.00800           0
     16024 TIP3     742      TIP3     OH2      OT      -0.834000       15.9994           0
     16025 TIP3     742      TIP3     H1       HT       0.417000       1.00800           0
     16026 TIP3     742      TIP3     H2       HT       0.417000       1.00800           0
     16027 TIP3     743      TIP3     OH2      OT      -0.834000       15.9994           0
     16028 TIP3     743      TIP3     H1       HT       0.417000       1.00800           0
     16029 TIP3     743      TIP3     H2       HT       0.417000       1.00800           0
     16030 TIP3     744      TIP3     OH2      OT      -0.834000       15.9994           0
     16031 TIP3     744      TIP3     H1       HT       0.417000       1.00800           0
     16032 TIP3     744      TIP3     H2       HT       0.417000       1.00800           0
     16033 TIP3     745      TIP3     OH2      OT      -0.834000       15.9994           0
     16034 TIP3     745      TIP3     H1       HT       0.417000       1.00800           0
     16035 TIP3     745      TIP3     H2       HT       0.417000       1.00800           0
     16036 TIP3     746      TIP3     OH2      OT      -0.834000       15.9994           0
     16037 TIP3     746      TIP3     H1       HT       0.417000       1.00800           0
     16038 TIP3     746      TIP3     H2       HT       0.417000       1.00800           0
     16039 TIP3     747      TIP3     OH2      OT      -0.834000       15.9994           0
     16040 TIP3     747      TIP3     H1       HT       0.417000       1.00800           0
     16041 TIP3     747      TIP3     H2       HT       0.417000       1.00800           0
     16042 TIP3     748      TIP3     OH2      OT      -0.834000       15.9994           0
     16043 TIP3     748      TIP3     H1       HT       0.417000       1.00800           0
     16044 TIP3     748      TIP3     H2       HT       0.417000       1.00800           0
     16045 TIP3     749      TIP3     OH2      OT      -0.834000       15.9994           0
     16046 TIP3     749      TIP3     H1       HT       0.417000       1.00800           0
     16047 TIP3     749      TIP3     H2       HT       0.417000       1.00800           0
     16048 TIP3     750      TIP3     OH2      OT      -0.834000       15.9994           0
     16049 TIP3     750      TIP3     H1       HT       0.417000       1.00800           0
     16050 TIP3     750      TIP3     H2       HT       0.417000       1.00800           0
     16051 TIP3     751      TIP3     OH2      OT      -0.834000       15.9994           0
     16052 TIP3     751      TIP3     H1       HT       0.417000       1.00800           0
     16053 TIP3     751      TIP3     H2       HT       0.417000       1.00800           0
     16054 TIP3     752      TIP3     OH2      OT      -0.834000       15.9994           0
     16055 TIP3     752      TIP3     H1       HT       0.417000       1.00800           0
     16056 TIP3     752      TIP3     H2       HT       0.417000       1.00800           0
     16057 TIP3     753      TIP3     OH2      OT      -0.834000       15.9994           0
     16058 TIP3     753      TIP3     H1       HT       0.417000       1.00800           0
     16059 TIP3     753      TIP3     H2       HT       0.417000       1.00800           0
     16060 TIP3     754      TIP3     OH2      OT      -0.834000       15.9994           0
     16061 TIP3     754      TIP3     H1       HT       0.417000       1.00800           0
     16062 TIP3     754      TIP3     H2       HT       0.417000       1.00800           0
     16063 TIP3     755      TIP3     OH2      OT      -0.834000       15.9994           0
     16064 TIP3     755      TIP3     H1       HT       0.417000       1.00800           0
     16065 TIP3     755      TIP3     H2       HT       0.417000       1.00800           0
     16066 TIP3     756      TIP3     OH2      OT      -0.834000       15.9994           0
     16067 TIP3     756      TIP3     H1       HT       0.417000       1.00800           0
     16068 TIP3     756      TIP3     H2       HT       0.417000       1.00800           0
     16069 TIP3     757      TIP3     OH2      OT      -0.834000       15.9994           0
     16070 TIP3     757      TIP3     H1       HT       0.417000       1.00800           0
     16071 TIP3     757      TIP3     H2       HT       0.417000       1.00800           0
     16072 TIP3     758      TIP3     OH2      OT      -0.834000       15.9994           0
     16073 TIP3     758      TIP3     H1       HT       0.417000       1.00800           0
     16074 TIP3     758      TIP3     H2       HT       0.417000       1.00800           0
     16075 TIP3     759      TIP3     OH2      OT      -0.834000       15.9994           0
     16076 TIP3     759      TIP3     H1       HT       0.417000       1.00800           0
     16077 TIP3     759      TIP3     H2       HT       0.417000       1.00800           0
     16078 TIP3     760      TIP3     OH2      OT      -0.834000       15.9994           0
     16079 TIP3     760      TIP3     H1       HT       0.417000       1.00800           0
     16080 TIP3     760      TIP3     H2       HT       0.417000       1.00800           0
     16081 TIP3     761      TIP3     OH2      OT      -0.834000       15.9994           0
     16082 TIP3     761      TIP3     H1       HT       0.417000       1.00800           0
     16083 TIP3     761      TIP3     H2       HT       0.417000       1.00800           0
     16084 TIP3     762      TIP3     OH2      OT      -0.834000       15.9994           0
     16085 TIP3     762      TIP3     H1       HT       0.417000       1.00800           0
     16086 TIP3     762      TIP3     H2       HT       0.417000       1.00800           0
     16087 TIP3     763      TIP3     OH2      OT      -0.834000       15.9994           0
     16088 TIP3     763      TIP3     H1       HT       0.417000       1.00800           0
     16089 TIP3     763      TIP3     H2       HT       0.417000       1.00800           0
     16090 TIP3     764      TIP3     OH2      OT      -0.834000       15.9994           0
     16091 TIP3     764      TIP3     H1       HT       0.417000       1.00800           0
     16092 TIP3     764      TIP3     H2       HT       0.417000       1.00800           0
     16093 TIP3     765      TIP3     OH2      OT      -0.834000       15.9994           0
     16094 TIP3     765      TIP3     H1       HT       0.417000       1.00800           0
     16095 TIP3     765      TIP3     H2       HT       0.417000       1.00800           0
     16096 TIP3     766      TIP3     OH2      OT      -0.834000       15.9994           0
     16097 TIP3     766      TIP3     H1       HT       0.417000       1.00800           0
     16098 TIP3     766      TIP3     H2       HT       0.417000       1.00800           0
     16099 TIP3     767      TIP3     OH2      OT      -0.834000       15.9994           0
     16100 TIP3     767      TIP3     H1       HT       0.417000       1.00800           0
     16101 TIP3     767      TIP3     H2       HT       0.417000       1.00800           0
     16102 TIP3     768      TIP3     OH2      OT      -0.834000       15.9994           0
     16103 TIP3     768      TIP3     H1       HT       0.417000       1.00800           0
     16104 TIP3     768      TIP3     H2       HT       0.417000       1.00800           0
     16105 TIP3     769      TIP3     OH2      OT      -0.834000       15.9994           0
     16106 TIP3     769      TIP3     H1       HT       0.417000       1.00800           0
     16107 TIP3     769      TIP3     H2       HT       0.417000       1.00800           0
     16108 TIP3     770      TIP3     OH2      OT      -0.834000       15.9994           0
     16109 TIP3     770      TIP3     H1       HT       0.417000       1.00800           0
     16110 TIP3     770      TIP3     H2       HT       0.417000       1.00800           0
     16111 TIP3     771      TIP3     OH2      OT      -0.834000       15.9994           0
     16112 TIP3     771      TIP3     H1       HT       0.417000       1.00800           0
     16113 TIP3     771      TIP3     H2       HT       0.417000       1.00800           0
     16114 TIP3     772      TIP3     OH2      OT      -0.834000       15.9994           0
     16115 TIP3     772      TIP3     H1       HT       0.417000       1.00800           0
     16116 TIP3     772      TIP3     H2       HT       0.417000       1.00800           0
     16117 TIP3     773      TIP3     OH2      OT      -0.834000       15.9994           0
     16118 TIP3     773      TIP3     H1       HT       0.417000       1.00800           0
     16119 TIP3     773      TIP3     H2       HT       0.417000       1.00800           0
     16120 TIP3     774      TIP3     OH2      OT      -0.834000       15.9994           0
     16121 TIP3     774      TIP3     H1       HT       0.417000       1.00800           0
     16122 TIP3     774      TIP3     H2       HT       0.417000       1.00800           0
     16123 TIP3     775      TIP3     OH2      OT      -0.834000       15.9994           0
     16124 TIP3     775      TIP3     H1       HT       0.417000       1.00800           0
     16125 TIP3     775      TIP3     H2       HT       0.417000       1.00800           0
     16126 TIP3     776      TIP3     OH2      OT      -0.834000       15.9994           0
     16127 TIP3     776      TIP3     H1       HT       0.417000       1.00800           0
     16128 TIP3     776      TIP3     H2       HT       0.417000       1.00800           0
     16129 TIP3     777      TIP3     OH2      OT      -0.834000       15.9994           0
     16130 TIP3     777      TIP3     H1       HT       0.417000       1.00800           0
     16131 TIP3     777      TIP3     H2       HT       0.417000       1.00800           0
     16132 TIP3     778      TIP3     OH2      OT      -0.834000       15.9994           0
     16133 TIP3     778      TIP3     H1       HT       0.417000       1.00800           0
     16134 TIP3     778      TIP3     H2       HT       0.417000       1.00800           0
     16135 TIP3     779      TIP3     OH2      OT      -0.834000       15.9994           0
     16136 TIP3     779      TIP3     H1       HT       0.417000       1.00800           0
     16137 TIP3     779      TIP3     H2       HT       0.417000       1.00800           0
     16138 TIP3     780      TIP3     OH2      OT      -0.834000       15.9994           0
     16139 TIP3     780      TIP3     H1       HT       0.417000       1.00800           0
     16140 TIP3     780      TIP3     H2       HT       0.417000       1.00800           0
     16141 TIP3     781      TIP3     OH2      OT      -0.834000       15.9994           0
     16142 TIP3     781      TIP3     H1       HT       0.417000       1.00800           0
     16143 TIP3     781      TIP3     H2       HT       0.417000       1.00800           0
     16144 TIP3     782      TIP3     OH2      OT      -0.834000       15.9994           0
     16145 TIP3     782      TIP3     H1       HT       0.417000       1.00800           0
     16146 TIP3     782      TIP3     H2       HT       0.417000       1.00800           0
     16147 TIP3     783      TIP3     OH2      OT      -0.834000       15.9994           0
     16148 TIP3     783      TIP3     H1       HT       0.417000       1.00800           0
     16149 TIP3     783      TIP3     H2       HT       0.417000       1.00800           0
     16150 TIP3     784      TIP3     OH2      OT      -0.834000       15.9994           0
     16151 TIP3     784      TIP3     H1       HT       0.417000       1.00800           0
     16152 TIP3     784      TIP3     H2       HT       0.417000       1.00800           0
     16153 TIP3     785      TIP3     OH2      OT      -0.834000       15.9994           0
     16154 TIP3     785      TIP3     H1       HT       0.417000       1.00800           0
     16155 TIP3     785      TIP3     H2       HT       0.417000       1.00800           0
     16156 TIP3     786      TIP3     OH2      OT      -0.834000       15.9994           0
     16157 TIP3     786      TIP3     H1       HT       0.417000       1.00800           0
     16158 TIP3     786      TIP3     H2       HT       0.417000       1.00800           0
     16159 TIP3     787      TIP3     OH2      OT      -0.834000       15.9994           0
     16160 TIP3     787      TIP3     H1       HT       0.417000       1.00800           0
     16161 TIP3     787      TIP3     H2       HT       0.417000       1.00800           0
     16162 TIP3     788      TIP3     OH2      OT      -0.834000       15.9994           0
     16163 TIP3     788      TIP3     H1       HT       0.417000       1.00800           0
     16164 TIP3     788      TIP3     H2       HT       0.417000       1.00800           0
     16165 TIP3     789      TIP3     OH2      OT      -0.834000       15.9994           0
     16166 TIP3     789      TIP3     H1       HT       0.417000       1.00800           0
     16167 TIP3     789      TIP3     H2       HT       0.417000       1.00800           0
     16168 TIP3     790      TIP3     OH2      OT      -0.834000       15.9994           0
     16169 TIP3     790      TIP3     H1       HT       0.417000       1.00800           0
     16170 TIP3     790      TIP3     H2       HT       0.417000       1.00800           0
     16171 TIP3     791      TIP3     OH2      OT      -0.834000       15.9994           0
     16172 TIP3     791      TIP3     H1       HT       0.417000       1.00800           0
     16173 TIP3     791      TIP3     H2       HT       0.417000       1.00800           0
     16174 TIP3     792      TIP3     OH2      OT      -0.834000       15.9994           0
     16175 TIP3     792      TIP3     H1       HT       0.417000       1.00800           0
     16176 TIP3     792      TIP3     H2       HT       0.417000       1.00800           0
     16177 TIP3     793      TIP3     OH2      OT      -0.834000       15.9994           0
     16178 TIP3     793      TIP3     H1       HT       0.417000       1.00800           0
     16179 TIP3     793      TIP3     H2       HT       0.417000       1.00800           0
     16180 TIP3     794      TIP3     OH2      OT      -0.834000       15.9994           0
     16181 TIP3     794      TIP3     H1       HT       0.417000       1.00800           0
     16182 TIP3     794      TIP3     H2       HT       0.417000       1.00800           0
     16183 TIP3     795      TIP3     OH2      OT      -0.834000       15.9994           0
     16184 TIP3     795      TIP3     H1       HT       0.417000       1.00800           0
     16185 TIP3     795      TIP3     H2       HT       0.417000       1.00800           0
     16186 TIP3     796      TIP3     OH2      OT      -0.834000       15.9994           0
     16187 TIP3     796      TIP3     H1       HT       0.417000       1.00800           0
     16188 TIP3     796      TIP3     H2       HT       0.417000       1.00800           0
     16189 TIP3     797      TIP3     OH2      OT      -0.834000       15.9994           0
     16190 TIP3     797      TIP3     H1       HT       0.417000       1.00800           0
     16191 TIP3     797      TIP3     H2       HT       0.417000       1.00800           0
     16192 TIP3     798      TIP3     OH2      OT      -0.834000       15.9994           0
     16193 TIP3     798      TIP3     H1       HT       0.417000       1.00800           0
     16194 TIP3     798      TIP3     H2       HT       0.417000       1.00800           0
     16195 TIP3     799      TIP3     OH2      OT      -0.834000       15.9994           0
     16196 TIP3     799      TIP3     H1       HT       0.417000       1.00800           0
     16197 TIP3     799      TIP3     H2       HT       0.417000       1.00800           0
     16198 TIP3     800      TIP3     OH2      OT      -0.834000       15.9994           0
     16199 TIP3     800      TIP3     H1       HT       0.417000       1.00800           0
     16200 TIP3     800      TIP3     H2       HT       0.417000       1.00800           0
     16201 TIP3     801      TIP3     OH2      OT      -0.834000       15.9994           0
     16202 TIP3     801      TIP3     H1       HT       0.417000       1.00800           0
     16203 TIP3     801      TIP3     H2       HT       0.417000       1.00800           0
     16204 TIP3     802      TIP3     OH2      OT      -0.834000       15.9994           0
     16205 TIP3     802      TIP3     H1       HT       0.417000       1.00800           0
     16206 TIP3     802      TIP3     H2       HT       0.417000       1.00800           0
     16207 TIP3     803      TIP3     OH2      OT      -0.834000       15.9994           0
     16208 TIP3     803      TIP3     H1       HT       0.417000       1.00800           0
     16209 TIP3     803      TIP3     H2       HT       0.417000       1.00800           0
     16210 TIP3     804      TIP3     OH2      OT      -0.834000       15.9994           0
     16211 TIP3     804      TIP3     H1       HT       0.417000       1.00800           0
     16212 TIP3     804      TIP3     H2       HT       0.417000       1.00800           0
     16213 TIP3     805      TIP3     OH2      OT      -0.834000       15.9994           0
     16214 TIP3     805      TIP3     H1       HT       0.417000       1.00800           0
     16215 TIP3     805      TIP3     H2       HT       0.417000       1.00800           0
     16216 TIP3     806      TIP3     OH2      OT      -0.834000       15.9994           0
     16217 TIP3     806      TIP3     H1       HT       0.417000       1.00800           0
     16218 TIP3     806      TIP3     H2       HT       0.417000       1.00800           0
     16219 TIP3     807      TIP3     OH2      OT      -0.834000       15.9994           0
     16220 TIP3     807      TIP3     H1       HT       0.417000       1.00800           0
     16221 TIP3     807      TIP3     H2       HT       0.417000       1.00800           0
     16222 TIP3     808      TIP3     OH2      OT      -0.834000       15.9994           0
     16223 TIP3     808      TIP3     H1       HT       0.417000       1.00800           0
     16224 TIP3     808      TIP3     H2       HT       0.417000       1.00800           0
     16225 TIP3     809      TIP3     OH2      OT      -0.834000       15.9994           0
     16226 TIP3     809      TIP3     H1       HT       0.417000       1.00800           0
     16227 TIP3     809      TIP3     H2       HT       0.417000       1.00800           0
     16228 TIP3     810      TIP3     OH2      OT      -0.834000       15.9994           0
     16229 TIP3     810      TIP3     H1       HT       0.417000       1.00800           0
     16230 TIP3     810      TIP3     H2       HT       0.417000       1.00800           0
     16231 TIP3     811      TIP3     OH2      OT      -0.834000       15.9994           0
     16232 TIP3     811      TIP3     H1       HT       0.417000       1.00800           0
     16233 TIP3     811      TIP3     H2       HT       0.417000       1.00800           0
     16234 TIP3     812      TIP3     OH2      OT      -0.834000       15.9994           0
     16235 TIP3     812      TIP3     H1       HT       0.417000       1.00800           0
     16236 TIP3     812      TIP3     H2       HT       0.417000       1.00800           0
     16237 TIP3     813      TIP3     OH2      OT      -0.834000       15.9994           0
     16238 TIP3     813      TIP3     H1       HT       0.417000       1.00800           0
     16239 TIP3     813      TIP3     H2       HT       0.417000       1.00800           0
     16240 TIP3     814      TIP3     OH2      OT      -0.834000       15.9994           0
     16241 TIP3     814      TIP3     H1       HT       0.417000       1.00800           0
     16242 TIP3     814      TIP3     H2       HT       0.417000       1.00800           0
     16243 TIP3     815      TIP3     OH2      OT      -0.834000       15.9994           0
     16244 TIP3     815      TIP3     H1       HT       0.417000       1.00800           0
     16245 TIP3     815      TIP3     H2       HT       0.417000       1.00800           0
     16246 TIP3     816      TIP3     OH2      OT      -0.834000       15.9994           0
     16247 TIP3     816      TIP3     H1       HT       0.417000       1.00800           0
     16248 TIP3     816      TIP3     H2       HT       0.417000       1.00800           0
     16249 TIP3     817      TIP3     OH2      OT      -0.834000       15.9994           0
     16250 TIP3     817      TIP3     H1       HT       0.417000       1.00800           0
     16251 TIP3     817      TIP3     H2       HT       0.417000       1.00800           0
     16252 TIP3     818      TIP3     OH2      OT      -0.834000       15.9994           0
     16253 TIP3     818      TIP3     H1       HT       0.417000       1.00800           0
     16254 TIP3     818      TIP3     H2       HT       0.417000       1.00800           0
     16255 TIP3     819      TIP3     OH2      OT      -0.834000       15.9994           0
     16256 TIP3     819      TIP3     H1       HT       0.417000       1.00800           0
     16257 TIP3     819      TIP3     H2       HT       0.417000       1.00800           0
     16258 TIP3     820      TIP3     OH2      OT      -0.834000       15.9994           0
     16259 TIP3     820      TIP3     H1       HT       0.417000       1.00800           0
     16260 TIP3     820      TIP3     H2       HT       0.417000       1.00800           0
     16261 TIP3     821      TIP3     OH2      OT      -0.834000       15.9994           0
     16262 TIP3     821      TIP3     H1       HT       0.417000       1.00800           0
     16263 TIP3     821      TIP3     H2       HT       0.417000       1.00800           0
     16264 TIP3     822      TIP3     OH2      OT      -0.834000       15.9994           0
     16265 TIP3     822      TIP3     H1       HT       0.417000       1.00800           0
     16266 TIP3     822      TIP3     H2       HT       0.417000       1.00800           0
     16267 TIP3     823      TIP3     OH2      OT      -0.834000       15.9994           0
     16268 TIP3     823      TIP3     H1       HT       0.417000       1.00800           0
     16269 TIP3     823      TIP3     H2       HT       0.417000       1.00800           0
     16270 TIP3     824      TIP3     OH2      OT      -0.834000       15.9994           0
     16271 TIP3     824      TIP3     H1       HT       0.417000       1.00800           0
     16272 TIP3     824      TIP3     H2       HT       0.417000       1.00800           0
     16273 TIP3     825      TIP3     OH2      OT      -0.834000       15.9994           0
     16274 TIP3     825      TIP3     H1       HT       0.417000       1.00800           0
     16275 TIP3     825      TIP3     H2       HT       0.417000       1.00800           0
     16276 TIP3     826      TIP3     OH2      OT      -0.834000       15.9994           0
     16277 TIP3     826      TIP3     H1       HT       0.417000       1.00800           0
     16278 TIP3     826      TIP3     H2       HT       0.417000       1.00800           0
     16279 TIP3     827      TIP3     OH2      OT      -0.834000       15.9994           0
     16280 TIP3     827      TIP3     H1       HT       0.417000       1.00800           0
     16281 TIP3     827      TIP3     H2       HT       0.417000       1.00800           0
     16282 TIP3     828      TIP3     OH2      OT      -0.834000       15.9994           0
     16283 TIP3     828      TIP3     H1       HT       0.417000       1.00800           0
     16284 TIP3     828      TIP3     H2       HT       0.417000       1.00800           0
     16285 TIP3     829      TIP3     OH2      OT      -0.834000       15.9994           0
     16286 TIP3     829      TIP3     H1       HT       0.417000       1.00800           0
     16287 TIP3     829      TIP3     H2       HT       0.417000       1.00800           0
     16288 TIP3     830      TIP3     OH2      OT      -0.834000       15.9994           0
     16289 TIP3     830      TIP3     H1       HT       0.417000       1.00800           0
     16290 TIP3     830      TIP3     H2       HT       0.417000       1.00800           0
     16291 TIP3     831      TIP3     OH2      OT      -0.834000       15.9994           0
     16292 TIP3     831      TIP3     H1       HT       0.417000       1.00800           0
     16293 TIP3     831      TIP3     H2       HT       0.417000       1.00800           0
     16294 TIP3     832      TIP3     OH2      OT      -0.834000       15.9994           0
     16295 TIP3     832      TIP3     H1       HT       0.417000       1.00800           0
     16296 TIP3     832      TIP3     H2       HT       0.417000       1.00800           0
     16297 TIP3     833      TIP3     OH2      OT      -0.834000       15.9994           0
     16298 TIP3     833      TIP3     H1       HT       0.417000       1.00800           0
     16299 TIP3     833      TIP3     H2       HT       0.417000       1.00800           0
     16300 TIP3     834      TIP3     OH2      OT      -0.834000       15.9994           0
     16301 TIP3     834      TIP3     H1       HT       0.417000       1.00800           0
     16302 TIP3     834      TIP3     H2       HT       0.417000       1.00800           0
     16303 TIP3     835      TIP3     OH2      OT      -0.834000       15.9994           0
     16304 TIP3     835      TIP3     H1       HT       0.417000       1.00800           0
     16305 TIP3     835      TIP3     H2       HT       0.417000       1.00800           0
     16306 TIP3     836      TIP3     OH2      OT      -0.834000       15.9994           0
     16307 TIP3     836      TIP3     H1       HT       0.417000       1.00800           0
     16308 TIP3     836      TIP3     H2       HT       0.417000       1.00800           0
     16309 TIP3     837      TIP3     OH2      OT      -0.834000       15.9994           0
     16310 TIP3     837      TIP3     H1       HT       0.417000       1.00800           0
     16311 TIP3     837      TIP3     H2       HT       0.417000       1.00800           0
     16312 TIP3     838      TIP3     OH2      OT      -0.834000       15.9994           0
     16313 TIP3     838      TIP3     H1       HT       0.417000       1.00800           0
     16314 TIP3     838      TIP3     H2       HT       0.417000       1.00800           0
     16315 TIP3     839      TIP3     OH2      OT      -0.834000       15.9994           0
     16316 TIP3     839      TIP3     H1       HT       0.417000       1.00800           0
     16317 TIP3     839      TIP3     H2       HT       0.417000       1.00800           0
     16318 TIP3     840      TIP3     OH2      OT      -0.834000       15.9994           0
     16319 TIP3     840      TIP3     H1       HT       0.417000       1.00800           0
     16320 TIP3     840      TIP3     H2       HT       0.417000       1.00800           0
     16321 TIP3     841      TIP3     OH2      OT      -0.834000       15.9994           0
     16322 TIP3     841      TIP3     H1       HT       0.417000       1.00800           0
     16323 TIP3     841      TIP3     H2       HT       0.417000       1.00800           0
     16324 TIP3     842      TIP3     OH2      OT      -0.834000       15.9994           0
     16325 TIP3     842      TIP3     H1       HT       0.417000       1.00800           0
     16326 TIP3     842      TIP3     H2       HT       0.417000       1.00800           0
     16327 TIP3     843      TIP3     OH2      OT      -0.834000       15.9994           0
     16328 TIP3     843      TIP3     H1       HT       0.417000       1.00800           0
     16329 TIP3     843      TIP3     H2       HT       0.417000       1.00800           0
     16330 TIP3     844      TIP3     OH2      OT      -0.834000       15.9994           0
     16331 TIP3     844      TIP3     H1       HT       0.417000       1.00800           0
     16332 TIP3     844      TIP3     H2       HT       0.417000       1.00800           0
     16333 TIP3     845      TIP3     OH2      OT      -0.834000       15.9994           0
     16334 TIP3     845      TIP3     H1       HT       0.417000       1.00800           0
     16335 TIP3     845      TIP3     H2       HT       0.417000       1.00800           0
     16336 TIP3     846      TIP3     OH2      OT      -0.834000       15.9994           0
     16337 TIP3     846      TIP3     H1       HT       0.417000       1.00800           0
     16338 TIP3     846      TIP3     H2       HT       0.417000       1.00800           0
     16339 TIP3     847      TIP3     OH2      OT      -0.834000       15.9994           0
     16340 TIP3     847      TIP3     H1       HT       0.417000       1.00800           0
     16341 TIP3     847      TIP3     H2       HT       0.417000       1.00800           0
     16342 TIP3     848      TIP3     OH2      OT      -0.834000       15.9994           0
     16343 TIP3     848      TIP3     H1       HT       0.417000       1.00800           0
     16344 TIP3     848      TIP3     H2       HT       0.417000       1.00800           0
     16345 TIP3     849      TIP3     OH2      OT      -0.834000       15.9994           0
     16346 TIP3     849      TIP3     H1       HT       0.417000       1.00800           0
     16347 TIP3     849      TIP3     H2       HT       0.417000       1.00800           0
     16348 TIP3     850      TIP3     OH2      OT      -0.834000       15.9994           0
     16349 TIP3     850      TIP3     H1       HT       0.417000       1.00800           0
     16350 TIP3     850      TIP3     H2       HT       0.417000       1.00800           0
     16351 TIP3     851      TIP3     OH2      OT      -0.834000       15.9994           0
     16352 TIP3     851      TIP3     H1       HT       0.417000       1.00800           0
     16353 TIP3     851      TIP3     H2       HT       0.417000       1.00800           0
     16354 TIP3     852      TIP3     OH2      OT      -0.834000       15.9994           0
     16355 TIP3     852      TIP3     H1       HT       0.417000       1.00800           0
     16356 TIP3     852      TIP3     H2       HT       0.417000       1.00800           0
     16357 TIP3     853      TIP3     OH2      OT      -0.834000       15.9994           0
     16358 TIP3     853      TIP3     H1       HT       0.417000       1.00800           0
     16359 TIP3     853      TIP3     H2       HT       0.417000       1.00800           0
     16360 TIP3     854      TIP3     OH2      OT      -0.834000       15.9994           0
     16361 TIP3     854      TIP3     H1       HT       0.417000       1.00800           0
     16362 TIP3     854      TIP3     H2       HT       0.417000       1.00800           0
     16363 TIP3     855      TIP3     OH2      OT      -0.834000       15.9994           0
     16364 TIP3     855      TIP3     H1       HT       0.417000       1.00800           0
     16365 TIP3     855      TIP3     H2       HT       0.417000       1.00800           0
     16366 TIP3     856      TIP3     OH2      OT      -0.834000       15.9994           0
     16367 TIP3     856      TIP3     H1       HT       0.417000       1.00800           0
     16368 TIP3     856      TIP3     H2       HT       0.417000       1.00800           0
     16369 TIP3     857      TIP3     OH2      OT      -0.834000       15.9994           0
     16370 TIP3     857      TIP3     H1       HT       0.417000       1.00800           0
     16371 TIP3     857      TIP3     H2       HT       0.417000       1.00800           0
     16372 TIP3     858      TIP3     OH2      OT      -0.834000       15.9994           0
     16373 TIP3     858      TIP3     H1       HT       0.417000       1.00800           0
     16374 TIP3     858      TIP3     H2       HT       0.417000       1.00800           0
     16375 TIP3     859      TIP3     OH2      OT      -0.834000       15.9994           0
     16376 TIP3     859      TIP3     H1       HT       0.417000       1.00800           0
     16377 TIP3     859      TIP3     H2       HT       0.417000       1.00800           0
     16378 TIP3     860      TIP3     OH2      OT      -0.834000       15.9994           0
     16379 TIP3     860      TIP3     H1       HT       0.417000       1.00800           0
     16380 TIP3     860      TIP3     H2       HT       0.417000       1.00800           0
     16381 TIP3     861      TIP3     OH2      OT      -0.834000       15.9994           0
     16382 TIP3     861      TIP3     H1       HT       0.417000       1.00800           0
     16383 TIP3     861      TIP3     H2       HT       0.417000       1.00800           0
     16384 TIP3     862      TIP3     OH2      OT      -0.834000       15.9994           0
     16385 TIP3     862      TIP3     H1       HT       0.417000       1.00800           0
     16386 TIP3     862      TIP3     H2       HT       0.417000       1.00800           0
     16387 TIP3     863      TIP3     OH2      OT      -0.834000       15.9994           0
     16388 TIP3     863      TIP3     H1       HT       0.417000       1.00800           0
     16389 TIP3     863      TIP3     H2       HT       0.417000       1.00800           0
     16390 TIP3     864      TIP3     OH2      OT      -0.834000       15.9994           0
     16391 TIP3     864      TIP3     H1       HT       0.417000       1.00800           0
     16392 TIP3     864      TIP3     H2       HT       0.417000       1.00800           0
     16393 TIP3     865      TIP3     OH2      OT      -0.834000       15.9994           0
     16394 TIP3     865      TIP3     H1       HT       0.417000       1.00800           0
     16395 TIP3     865      TIP3     H2       HT       0.417000       1.00800           0
     16396 TIP3     866      TIP3     OH2      OT      -0.834000       15.9994           0
     16397 TIP3     866      TIP3     H1       HT       0.417000       1.00800           0
     16398 TIP3     866      TIP3     H2       HT       0.417000       1.00800           0
     16399 TIP3     867      TIP3     OH2      OT      -0.834000       15.9994           0
     16400 TIP3     867      TIP3     H1       HT       0.417000       1.00800           0
     16401 TIP3     867      TIP3     H2       HT       0.417000       1.00800           0
     16402 TIP3     868      TIP3     OH2      OT      -0.834000       15.9994           0
     16403 TIP3     868      TIP3     H1       HT       0.417000       1.00800           0
     16404 TIP3     868      TIP3     H2       HT       0.417000       1.00800           0
     16405 TIP3     869      TIP3     OH2      OT      -0.834000       15.9994           0
     16406 TIP3     869      TIP3     H1       HT       0.417000       1.00800           0
     16407 TIP3     869      TIP3     H2       HT       0.417000       1.00800           0
     16408 TIP3     870      TIP3     OH2      OT      -0.834000       15.9994           0
     16409 TIP3     870      TIP3     H1       HT       0.417000       1.00800           0
     16410 TIP3     870      TIP3     H2       HT       0.417000       1.00800           0
     16411 TIP3     871      TIP3     OH2      OT      -0.834000       15.9994           0
     16412 TIP3     871      TIP3     H1       HT       0.417000       1.00800           0
     16413 TIP3     871      TIP3     H2       HT       0.417000       1.00800           0
     16414 TIP3     872      TIP3     OH2      OT      -0.834000       15.9994           0
     16415 TIP3     872      TIP3     H1       HT       0.417000       1.00800           0
     16416 TIP3     872      TIP3     H2       HT       0.417000       1.00800           0
     16417 TIP3     873      TIP3     OH2      OT      -0.834000       15.9994           0
     16418 TIP3     873      TIP3     H1       HT       0.417000       1.00800           0
     16419 TIP3     873      TIP3     H2       HT       0.417000       1.00800           0
     16420 TIP3     874      TIP3     OH2      OT      -0.834000       15.9994           0
     16421 TIP3     874      TIP3     H1       HT       0.417000       1.00800           0
     16422 TIP3     874      TIP3     H2       HT       0.417000       1.00800           0
     16423 TIP3     875      TIP3     OH2      OT      -0.834000       15.9994           0
     16424 TIP3     875      TIP3     H1       HT       0.417000       1.00800           0
     16425 TIP3     875      TIP3     H2       HT       0.417000       1.00800           0
     16426 TIP3     876      TIP3     OH2      OT      -0.834000       15.9994           0
     16427 TIP3     876      TIP3     H1       HT       0.417000       1.00800           0
     16428 TIP3     876      TIP3     H2       HT       0.417000       1.00800           0
     16429 TIP3     877      TIP3     OH2      OT      -0.834000       15.9994           0
     16430 TIP3     877      TIP3     H1       HT       0.417000       1.00800           0
     16431 TIP3     877      TIP3     H2       HT       0.417000       1.00800           0
     16432 TIP3     878      TIP3     OH2      OT      -0.834000       15.9994           0
     16433 TIP3     878      TIP3     H1       HT       0.417000       1.00800           0
     16434 TIP3     878      TIP3     H2       HT       0.417000       1.00800           0
     16435 TIP3     879      TIP3     OH2      OT      -0.834000       15.9994           0
     16436 TIP3     879      TIP3     H1       HT       0.417000       1.00800           0
     16437 TIP3     879      TIP3     H2       HT       0.417000       1.00800           0
     16438 TIP3     880      TIP3     OH2      OT      -0.834000       15.9994           0
     16439 TIP3     880      TIP3     H1       HT       0.417000       1.00800           0
     16440 TIP3     880      TIP3     H2       HT       0.417000       1.00800           0
     16441 TIP3     881      TIP3     OH2      OT      -0.834000       15.9994           0
     16442 TIP3     881      TIP3     H1       HT       0.417000       1.00800           0
     16443 TIP3     881      TIP3     H2       HT       0.417000       1.00800           0
     16444 TIP3     882      TIP3     OH2      OT      -0.834000       15.9994           0
     16445 TIP3     882      TIP3     H1       HT       0.417000       1.00800           0
     16446 TIP3     882      TIP3     H2       HT       0.417000       1.00800           0
     16447 TIP3     883      TIP3     OH2      OT      -0.834000       15.9994           0
     16448 TIP3     883      TIP3     H1       HT       0.417000       1.00800           0
     16449 TIP3     883      TIP3     H2       HT       0.417000       1.00800           0
     16450 TIP3     884      TIP3     OH2      OT      -0.834000       15.9994           0
     16451 TIP3     884      TIP3     H1       HT       0.417000       1.00800           0
     16452 TIP3     884      TIP3     H2       HT       0.417000       1.00800           0
     16453 TIP3     885      TIP3     OH2      OT      -0.834000       15.9994           0
     16454 TIP3     885      TIP3     H1       HT       0.417000       1.00800           0
     16455 TIP3     885      TIP3     H2       HT       0.417000       1.00800           0
     16456 TIP3     886      TIP3     OH2      OT      -0.834000       15.9994           0
     16457 TIP3     886      TIP3     H1       HT       0.417000       1.00800           0
     16458 TIP3     886      TIP3     H2       HT       0.417000       1.00800           0
     16459 TIP3     887      TIP3     OH2      OT      -0.834000       15.9994           0
     16460 TIP3     887      TIP3     H1       HT       0.417000       1.00800           0
     16461 TIP3     887      TIP3     H2       HT       0.417000       1.00800           0
     16462 TIP3     888      TIP3     OH2      OT      -0.834000       15.9994           0
     16463 TIP3     888      TIP3     H1       HT       0.417000       1.00800           0
     16464 TIP3     888      TIP3     H2       HT       0.417000       1.00800           0
     16465 TIP3     889      TIP3     OH2      OT      -0.834000       15.9994           0
     16466 TIP3     889      TIP3     H1       HT       0.417000       1.00800           0
     16467 TIP3     889      TIP3     H2       HT       0.417000       1.00800           0
     16468 TIP3     890      TIP3     OH2      OT      -0.834000       15.9994           0
     16469 TIP3     890      TIP3     H1       HT       0.417000       1.00800           0
     16470 TIP3     890      TIP3     H2       HT       0.417000       1.00800           0
     16471 TIP3     891      TIP3     OH2      OT      -0.834000       15.9994           0
     16472 TIP3     891      TIP3     H1       HT       0.417000       1.00800           0
     16473 TIP3     891      TIP3     H2       HT       0.417000       1.00800           0
     16474 TIP3     892      TIP3     OH2      OT      -0.834000       15.9994           0
     16475 TIP3     892      TIP3     H1       HT       0.417000       1.00800           0
     16476 TIP3     892      TIP3     H2       HT       0.417000       1.00800           0
     16477 TIP3     893      TIP3     OH2      OT      -0.834000       15.9994           0
     16478 TIP3     893      TIP3     H1       HT       0.417000       1.00800           0
     16479 TIP3     893      TIP3     H2       HT       0.417000       1.00800           0
     16480 TIP3     894      TIP3     OH2      OT      -0.834000       15.9994           0
     16481 TIP3     894      TIP3     H1       HT       0.417000       1.00800           0
     16482 TIP3     894      TIP3     H2       HT       0.417000       1.00800           0
     16483 TIP3     895      TIP3     OH2      OT      -0.834000       15.9994           0
     16484 TIP3     895      TIP3     H1       HT       0.417000       1.00800           0
     16485 TIP3     895      TIP3     H2       HT       0.417000       1.00800           0
     16486 TIP3     896      TIP3     OH2      OT      -0.834000       15.9994           0
     16487 TIP3     896      TIP3     H1       HT       0.417000       1.00800           0
     16488 TIP3     896      TIP3     H2       HT       0.417000       1.00800           0
     16489 TIP3     897      TIP3     OH2      OT      -0.834000       15.9994           0
     16490 TIP3     897      TIP3     H1       HT       0.417000       1.00800           0
     16491 TIP3     897      TIP3     H2       HT       0.417000       1.00800           0
     16492 TIP3     898      TIP3     OH2      OT      -0.834000       15.9994           0
     16493 TIP3     898      TIP3     H1       HT       0.417000       1.00800           0
     16494 TIP3     898      TIP3     H2       HT       0.417000       1.00800           0
     16495 TIP3     899      TIP3     OH2      OT      -0.834000       15.9994           0
     16496 TIP3     899      TIP3     H1       HT       0.417000       1.00800           0
     16497 TIP3     899      TIP3     H2       HT       0.417000       1.00800           0
     16498 TIP3     900      TIP3     OH2      OT      -0.834000       15.9994           0
     16499 TIP3     900      TIP3     H1       HT       0.417000       1.00800           0
     16500 TIP3     900      TIP3     H2       HT       0.417000       1.00800           0
     16501 TIP3     901      TIP3     OH2      OT      -0.834000       15.9994           0
     16502 TIP3     901      TIP3     H1       HT       0.417000       1.00800           0
     16503 TIP3     901      TIP3     H2       HT       0.417000       1.00800           0
     16504 TIP3     902      TIP3     OH2      OT      -0.834000       15.9994           0
     16505 TIP3     902      TIP3     H1       HT       0.417000       1.00800           0
     16506 TIP3     902      TIP3     H2       HT       0.417000       1.00800           0
     16507 TIP3     903      TIP3     OH2      OT      -0.834000       15.9994           0
     16508 TIP3     903      TIP3     H1       HT       0.417000       1.00800           0
     16509 TIP3     903      TIP3     H2       HT       0.417000       1.00800           0
     16510 TIP3     904      TIP3     OH2      OT      -0.834000       15.9994           0
     16511 TIP3     904      TIP3     H1       HT       0.417000       1.00800           0
     16512 TIP3     904      TIP3     H2       HT       0.417000       1.00800           0
     16513 TIP3     905      TIP3     OH2      OT      -0.834000       15.9994           0
     16514 TIP3     905      TIP3     H1       HT       0.417000       1.00800           0
     16515 TIP3     905      TIP3     H2       HT       0.417000       1.00800           0
     16516 TIP3     906      TIP3     OH2      OT      -0.834000       15.9994           0
     16517 TIP3     906      TIP3     H1       HT       0.417000       1.00800           0
     16518 TIP3     906      TIP3     H2       HT       0.417000       1.00800           0
     16519 TIP3     907      TIP3     OH2      OT      -0.834000       15.9994           0
     16520 TIP3     907      TIP3     H1       HT       0.417000       1.00800           0
     16521 TIP3     907      TIP3     H2       HT       0.417000       1.00800           0
     16522 TIP3     908      TIP3     OH2      OT      -0.834000       15.9994           0
     16523 TIP3     908      TIP3     H1       HT       0.417000       1.00800           0
     16524 TIP3     908      TIP3     H2       HT       0.417000       1.00800           0
     16525 TIP3     909      TIP3     OH2      OT      -0.834000       15.9994           0
     16526 TIP3     909      TIP3     H1       HT       0.417000       1.00800           0
     16527 TIP3     909      TIP3     H2       HT       0.417000       1.00800           0
     16528 TIP3     910      TIP3     OH2      OT      -0.834000       15.9994           0
     16529 TIP3     910      TIP3     H1       HT       0.417000       1.00800           0
     16530 TIP3     910      TIP3     H2       HT       0.417000       1.00800           0
     16531 TIP3     911      TIP3     OH2      OT      -0.834000       15.9994           0
     16532 TIP3     911      TIP3     H1       HT       0.417000       1.00800           0
     16533 TIP3     911      TIP3     H2       HT       0.417000       1.00800           0
     16534 TIP3     912      TIP3     OH2      OT      -0.834000       15.9994           0
     16535 TIP3     912      TIP3     H1       HT       0.417000       1.00800           0
     16536 TIP3     912      TIP3     H2       HT       0.417000       1.00800           0
     16537 TIP3     913      TIP3     OH2      OT      -0.834000       15.9994           0
     16538 TIP3     913      TIP3     H1       HT       0.417000       1.00800           0
     16539 TIP3     913      TIP3     H2       HT       0.417000       1.00800           0
     16540 TIP3     914      TIP3     OH2      OT      -0.834000       15.9994           0
     16541 TIP3     914      TIP3     H1       HT       0.417000       1.00800           0
     16542 TIP3     914      TIP3     H2       HT       0.417000       1.00800           0
     16543 TIP3     915      TIP3     OH2      OT      -0.834000       15.9994           0
     16544 TIP3     915      TIP3     H1       HT       0.417000       1.00800           0
     16545 TIP3     915      TIP3     H2       HT       0.417000       1.00800           0
     16546 TIP3     916      TIP3     OH2      OT      -0.834000       15.9994           0
     16547 TIP3     916      TIP3     H1       HT       0.417000       1.00800           0
     16548 TIP3     916      TIP3     H2       HT       0.417000       1.00800           0
     16549 TIP3     917      TIP3     OH2      OT      -0.834000       15.9994           0
     16550 TIP3     917      TIP3     H1       HT       0.417000       1.00800           0
     16551 TIP3     917      TIP3     H2       HT       0.417000       1.00800           0
     16552 TIP3     918      TIP3     OH2      OT      -0.834000       15.9994           0
     16553 TIP3     918      TIP3     H1       HT       0.417000       1.00800           0
     16554 TIP3     918      TIP3     H2       HT       0.417000       1.00800           0
     16555 TIP3     919      TIP3     OH2      OT      -0.834000       15.9994           0
     16556 TIP3     919      TIP3     H1       HT       0.417000       1.00800           0
     16557 TIP3     919      TIP3     H2       HT       0.417000       1.00800           0
     16558 TIP3     920      TIP3     OH2      OT      -0.834000       15.9994           0
     16559 TIP3     920      TIP3     H1       HT       0.417000       1.00800           0
     16560 TIP3     920      TIP3     H2       HT       0.417000       1.00800           0
     16561 TIP3     921      TIP3     OH2      OT      -0.834000       15.9994           0
     16562 TIP3     921      TIP3     H1       HT       0.417000       1.00800           0
     16563 TIP3     921      TIP3     H2       HT       0.417000       1.00800           0
     16564 TIP3     922      TIP3     OH2      OT      -0.834000       15.9994           0
     16565 TIP3     922      TIP3     H1       HT       0.417000       1.00800           0
     16566 TIP3     922      TIP3     H2       HT       0.417000       1.00800           0
     16567 TIP3     923      TIP3     OH2      OT      -0.834000       15.9994           0
     16568 TIP3     923      TIP3     H1       HT       0.417000       1.00800           0
     16569 TIP3     923      TIP3     H2       HT       0.417000       1.00800           0
     16570 TIP3     924      TIP3     OH2      OT      -0.834000       15.9994           0
     16571 TIP3     924      TIP3     H1       HT       0.417000       1.00800           0
     16572 TIP3     924      TIP3     H2       HT       0.417000       1.00800           0
     16573 TIP3     925      TIP3     OH2      OT      -0.834000       15.9994           0
     16574 TIP3     925      TIP3     H1       HT       0.417000       1.00800           0
     16575 TIP3     925      TIP3     H2       HT       0.417000       1.00800           0
     16576 TIP3     926      TIP3     OH2      OT      -0.834000       15.9994           0
     16577 TIP3     926      TIP3     H1       HT       0.417000       1.00800           0
     16578 TIP3     926      TIP3     H2       HT       0.417000       1.00800           0
     16579 TIP3     927      TIP3     OH2      OT      -0.834000       15.9994           0
     16580 TIP3     927      TIP3     H1       HT       0.417000       1.00800           0
     16581 TIP3     927      TIP3     H2       HT       0.417000       1.00800           0
     16582 TIP3     928      TIP3     OH2      OT      -0.834000       15.9994           0
     16583 TIP3     928      TIP3     H1       HT       0.417000       1.00800           0
     16584 TIP3     928      TIP3     H2       HT       0.417000       1.00800           0
     16585 TIP3     929      TIP3     OH2      OT      -0.834000       15.9994           0
     16586 TIP3     929      TIP3     H1       HT       0.417000       1.00800           0
     16587 TIP3     929      TIP3     H2       HT       0.417000       1.00800           0
     16588 TIP3     930      TIP3     OH2      OT      -0.834000       15.9994           0
     16589 TIP3     930      TIP3     H1       HT       0.417000       1.00800           0
     16590 TIP3     930      TIP3     H2       HT       0.417000       1.00800           0
     16591 TIP3     931      TIP3     OH2      OT      -0.834000       15.9994           0
     16592 TIP3     931      TIP3     H1       HT       0.417000       1.00800           0
     16593 TIP3     931      TIP3     H2       HT       0.417000       1.00800           0
     16594 TIP3     932      TIP3     OH2      OT      -0.834000       15.9994           0
     16595 TIP3     932      TIP3     H1       HT       0.417000       1.00800           0
     16596 TIP3     932      TIP3     H2       HT       0.417000       1.00800           0
     16597 TIP3     933      TIP3     OH2      OT      -0.834000       15.9994           0
     16598 TIP3     933      TIP3     H1       HT       0.417000       1.00800           0
     16599 TIP3     933      TIP3     H2       HT       0.417000       1.00800           0
     16600 TIP3     934      TIP3     OH2      OT      -0.834000       15.9994           0
     16601 TIP3     934      TIP3     H1       HT       0.417000       1.00800           0
     16602 TIP3     934      TIP3     H2       HT       0.417000       1.00800           0
     16603 TIP3     935      TIP3     OH2      OT      -0.834000       15.9994           0
     16604 TIP3     935      TIP3     H1       HT       0.417000       1.00800           0
     16605 TIP3     935      TIP3     H2       HT       0.417000       1.00800           0
     16606 TIP3     936      TIP3     OH2      OT      -0.834000       15.9994           0
     16607 TIP3     936      TIP3     H1       HT       0.417000       1.00800           0
     16608 TIP3     936      TIP3     H2       HT       0.417000       1.00800           0
     16609 TIP3     937      TIP3     OH2      OT      -0.834000       15.9994           0
     16610 TIP3     937      TIP3     H1       HT       0.417000       1.00800           0
     16611 TIP3     937      TIP3     H2       HT       0.417000       1.00800           0
     16612 TIP3     938      TIP3     OH2      OT      -0.834000       15.9994           0
     16613 TIP3     938      TIP3     H1       HT       0.417000       1.00800           0
     16614 TIP3     938      TIP3     H2       HT       0.417000       1.00800           0
     16615 TIP3     939      TIP3     OH2      OT      -0.834000       15.9994           0
     16616 TIP3     939      TIP3     H1       HT       0.417000       1.00800           0
     16617 TIP3     939      TIP3     H2       HT       0.417000       1.00800           0
     16618 TIP3     940      TIP3     OH2      OT      -0.834000       15.9994           0
     16619 TIP3     940      TIP3     H1       HT       0.417000       1.00800           0
     16620 TIP3     940      TIP3     H2       HT       0.417000       1.00800           0
     16621 TIP3     941      TIP3     OH2      OT      -0.834000       15.9994           0
     16622 TIP3     941      TIP3     H1       HT       0.417000       1.00800           0
     16623 TIP3     941      TIP3     H2       HT       0.417000       1.00800           0
     16624 TIP3     942      TIP3     OH2      OT      -0.834000       15.9994           0
     16625 TIP3     942      TIP3     H1       HT       0.417000       1.00800           0
     16626 TIP3     942      TIP3     H2       HT       0.417000       1.00800           0
     16627 TIP3     943      TIP3     OH2      OT      -0.834000       15.9994           0
     16628 TIP3     943      TIP3     H1       HT       0.417000       1.00800           0
     16629 TIP3     943      TIP3     H2       HT       0.417000       1.00800           0
     16630 TIP3     944      TIP3     OH2      OT      -0.834000       15.9994           0
     16631 TIP3     944      TIP3     H1       HT       0.417000       1.00800           0
     16632 TIP3     944      TIP3     H2       HT       0.417000       1.00800           0
     16633 TIP3     945      TIP3     OH2      OT      -0.834000       15.9994           0
     16634 TIP3     945      TIP3     H1       HT       0.417000       1.00800           0
     16635 TIP3     945      TIP3     H2       HT       0.417000       1.00800           0
     16636 TIP3     946      TIP3     OH2      OT      -0.834000       15.9994           0
     16637 TIP3     946      TIP3     H1       HT       0.417000       1.00800           0
     16638 TIP3     946      TIP3     H2       HT       0.417000       1.00800           0
     16639 TIP3     947      TIP3     OH2      OT      -0.834000       15.9994           0
     16640 TIP3     947      TIP3     H1       HT       0.417000       1.00800           0
     16641 TIP3     947      TIP3     H2       HT       0.417000       1.00800           0
     16642 TIP3     948      TIP3     OH2      OT      -0.834000       15.9994           0
     16643 TIP3     948      TIP3     H1       HT       0.417000       1.00800           0
     16644 TIP3     948      TIP3     H2       HT       0.417000       1.00800           0
     16645 TIP3     949      TIP3     OH2      OT      -0.834000       15.9994           0
     16646 TIP3     949      TIP3     H1       HT       0.417000       1.00800           0
     16647 TIP3     949      TIP3     H2       HT       0.417000       1.00800           0
     16648 TIP3     950      TIP3     OH2      OT      -0.834000       15.9994           0
     16649 TIP3     950      TIP3     H1       HT       0.417000       1.00800           0
     16650 TIP3     950      TIP3     H2       HT       0.417000       1.00800           0
     16651 TIP3     951      TIP3     OH2      OT      -0.834000       15.9994           0
     16652 TIP3     951      TIP3     H1       HT       0.417000       1.00800           0
     16653 TIP3     951      TIP3     H2       HT       0.417000       1.00800           0
     16654 TIP3     952      TIP3     OH2      OT      -0.834000       15.9994           0
     16655 TIP3     952      TIP3     H1       HT       0.417000       1.00800           0
     16656 TIP3     952      TIP3     H2       HT       0.417000       1.00800           0
     16657 TIP3     953      TIP3     OH2      OT      -0.834000       15.9994           0
     16658 TIP3     953      TIP3     H1       HT       0.417000       1.00800           0
     16659 TIP3     953      TIP3     H2       HT       0.417000       1.00800           0
     16660 TIP3     954      TIP3     OH2      OT      -0.834000       15.9994           0
     16661 TIP3     954      TIP3     H1       HT       0.417000       1.00800           0
     16662 TIP3     954      TIP3     H2       HT       0.417000       1.00800           0
     16663 TIP3     955      TIP3     OH2      OT      -0.834000       15.9994           0
     16664 TIP3     955      TIP3     H1       HT       0.417000       1.00800           0
     16665 TIP3     955      TIP3     H2       HT       0.417000       1.00800           0
     16666 TIP3     956      TIP3     OH2      OT      -0.834000       15.9994           0
     16667 TIP3     956      TIP3     H1       HT       0.417000       1.00800           0
     16668 TIP3     956      TIP3     H2       HT       0.417000       1.00800           0
     16669 TIP3     957      TIP3     OH2      OT      -0.834000       15.9994           0
     16670 TIP3     957      TIP3     H1       HT       0.417000       1.00800           0
     16671 TIP3     957      TIP3     H2       HT       0.417000       1.00800           0
     16672 TIP3     958      TIP3     OH2      OT      -0.834000       15.9994           0
     16673 TIP3     958      TIP3     H1       HT       0.417000       1.00800           0
     16674 TIP3     958      TIP3     H2       HT       0.417000       1.00800           0
     16675 TIP3     959      TIP3     OH2      OT      -0.834000       15.9994           0
     16676 TIP3     959      TIP3     H1       HT       0.417000       1.00800           0
     16677 TIP3     959      TIP3     H2       HT       0.417000       1.00800           0
     16678 TIP3     960      TIP3     OH2      OT      -0.834000       15.9994           0
     16679 TIP3     960      TIP3     H1       HT       0.417000       1.00800           0
     16680 TIP3     960      TIP3     H2       HT       0.417000       1.00800           0
     16681 TIP3     961      TIP3     OH2      OT      -0.834000       15.9994           0
     16682 TIP3     961      TIP3     H1       HT       0.417000       1.00800           0
     16683 TIP3     961      TIP3     H2       HT       0.417000       1.00800           0
     16684 TIP3     962      TIP3     OH2      OT      -0.834000       15.9994           0
     16685 TIP3     962      TIP3     H1       HT       0.417000       1.00800           0
     16686 TIP3     962      TIP3     H2       HT       0.417000       1.00800           0
     16687 TIP3     963      TIP3     OH2      OT      -0.834000       15.9994           0
     16688 TIP3     963      TIP3     H1       HT       0.417000       1.00800           0
     16689 TIP3     963      TIP3     H2       HT       0.417000       1.00800           0
     16690 TIP3     964      TIP3     OH2      OT      -0.834000       15.9994           0
     16691 TIP3     964      TIP3     H1       HT       0.417000       1.00800           0
     16692 TIP3     964      TIP3     H2       HT       0.417000       1.00800           0
     16693 TIP3     965      TIP3     OH2      OT      -0.834000       15.9994           0
     16694 TIP3     965      TIP3     H1       HT       0.417000       1.00800           0
     16695 TIP3     965      TIP3     H2       HT       0.417000       1.00800           0
     16696 TIP3     966      TIP3     OH2      OT      -0.834000       15.9994           0
     16697 TIP3     966      TIP3     H1       HT       0.417000       1.00800           0
     16698 TIP3     966      TIP3     H2       HT       0.417000       1.00800           0
     16699 TIP3     967      TIP3     OH2      OT      -0.834000       15.9994           0
     16700 TIP3     967      TIP3     H1       HT       0.417000       1.00800           0
     16701 TIP3     967      TIP3     H2       HT       0.417000       1.00800           0
     16702 TIP3     968      TIP3     OH2      OT      -0.834000       15.9994           0
     16703 TIP3     968      TIP3     H1       HT       0.417000       1.00800           0
     16704 TIP3     968      TIP3     H2       HT       0.417000       1.00800           0
     16705 TIP3     969      TIP3     OH2      OT      -0.834000       15.9994           0
     16706 TIP3     969      TIP3     H1       HT       0.417000       1.00800           0
     16707 TIP3     969      TIP3     H2       HT       0.417000       1.00800           0
     16708 TIP3     970      TIP3     OH2      OT      -0.834000       15.9994           0
     16709 TIP3     970      TIP3     H1       HT       0.417000       1.00800           0
     16710 TIP3     970      TIP3     H2       HT       0.417000       1.00800           0
     16711 TIP3     971      TIP3     OH2      OT      -0.834000       15.9994           0
     16712 TIP3     971      TIP3     H1       HT       0.417000       1.00800           0
     16713 TIP3     971      TIP3     H2       HT       0.417000       1.00800           0
     16714 TIP3     972      TIP3     OH2      OT      -0.834000       15.9994           0
     16715 TIP3     972      TIP3     H1       HT       0.417000       1.00800           0
     16716 TIP3     972      TIP3     H2       HT       0.417000       1.00800           0
     16717 TIP3     973      TIP3     OH2      OT      -0.834000       15.9994           0
     16718 TIP3     973      TIP3     H1       HT       0.417000       1.00800           0
     16719 TIP3     973      TIP3     H2       HT       0.417000       1.00800           0
     16720 TIP3     974      TIP3     OH2      OT      -0.834000       15.9994           0
     16721 TIP3     974      TIP3     H1       HT       0.417000       1.00800           0
     16722 TIP3     974      TIP3     H2       HT       0.417000       1.00800           0
     16723 TIP3     975      TIP3     OH2      OT      -0.834000       15.9994           0
     16724 TIP3     975      TIP3     H1       HT       0.417000       1.00800           0
     16725 TIP3     975      TIP3     H2       HT       0.417000       1.00800           0
     16726 TIP3     976      TIP3     OH2      OT      -0.834000       15.9994           0
     16727 TIP3     976      TIP3     H1       HT       0.417000       1.00800           0
     16728 TIP3     976      TIP3     H2       HT       0.417000       1.00800           0
     16729 TIP3     977      TIP3     OH2      OT      -0.834000       15.9994           0
     16730 TIP3     977      TIP3     H1       HT       0.417000       1.00800           0
     16731 TIP3     977      TIP3     H2       HT       0.417000       1.00800           0
     16732 TIP3     978      TIP3     OH2      OT      -0.834000       15.9994           0
     16733 TIP3     978      TIP3     H1       HT       0.417000       1.00800           0
     16734 TIP3     978      TIP3     H2       HT       0.417000       1.00800           0
     16735 TIP3     979      TIP3     OH2      OT      -0.834000       15.9994           0
     16736 TIP3     979      TIP3     H1       HT       0.417000       1.00800           0
     16737 TIP3     979      TIP3     H2       HT       0.417000       1.00800           0
     16738 TIP3     980      TIP3     OH2      OT      -0.834000       15.9994           0
     16739 TIP3     980      TIP3     H1       HT       0.417000       1.00800           0
     16740 TIP3     980      TIP3     H2       HT       0.417000       1.00800           0
     16741 TIP3     981      TIP3     OH2      OT      -0.834000       15.9994           0
     16742 TIP3     981      TIP3     H1       HT       0.417000       1.00800           0
     16743 TIP3     981      TIP3     H2       HT       0.417000       1.00800           0
     16744 TIP3     982      TIP3     OH2      OT      -0.834000       15.9994           0
     16745 TIP3     982      TIP3     H1       HT       0.417000       1.00800           0
     16746 TIP3     982      TIP3     H2       HT       0.417000       1.00800           0
     16747 TIP3     983      TIP3     OH2      OT      -0.834000       15.9994           0
     16748 TIP3     983      TIP3     H1       HT       0.417000       1.00800           0
     16749 TIP3     983      TIP3     H2       HT       0.417000       1.00800           0
     16750 TIP3     984      TIP3     OH2      OT      -0.834000       15.9994           0
     16751 TIP3     984      TIP3     H1       HT       0.417000       1.00800           0
     16752 TIP3     984      TIP3     H2       HT       0.417000       1.00800           0
     16753 TIP3     985      TIP3     OH2      OT      -0.834000       15.9994           0
     16754 TIP3     985      TIP3     H1       HT       0.417000       1.00800           0
     16755 TIP3     985      TIP3     H2       HT       0.417000       1.00800           0
     16756 TIP3     986      TIP3     OH2      OT      -0.834000       15.9994           0
     16757 TIP3     986      TIP3     H1       HT       0.417000       1.00800           0
     16758 TIP3     986      TIP3     H2       HT       0.417000       1.00800           0
     16759 TIP3     987      TIP3     OH2      OT      -0.834000       15.9994           0
     16760 TIP3     987      TIP3     H1       HT       0.417000       1.00800           0
     16761 TIP3     987      TIP3     H2       HT       0.417000       1.00800           0
     16762 TIP3     988      TIP3     OH2      OT      -0.834000       15.9994           0
     16763 TIP3     988      TIP3     H1       HT       0.417000       1.00800           0
     16764 TIP3     988      TIP3     H2       HT       0.417000       1.00800           0
     16765 TIP3     989      TIP3     OH2      OT      -0.834000       15.9994           0
     16766 TIP3     989      TIP3     H1       HT       0.417000       1.00800           0
     16767 TIP3     989      TIP3     H2       HT       0.417000       1.00800           0
     16768 TIP3     990      TIP3     OH2      OT      -0.834000       15.9994           0
     16769 TIP3     990      TIP3     H1       HT       0.417000       1.00800           0
     16770 TIP3     990      TIP3     H2       HT       0.417000       1.00800           0
     16771 TIP3     991      TIP3     OH2      OT      -0.834000       15.9994           0
     16772 TIP3     991      TIP3     H1       HT       0.417000       1.00800           0
     16773 TIP3     991      TIP3     H2       HT       0.417000       1.00800           0
     16774 TIP3     992      TIP3     OH2      OT      -0.834000       15.9994           0
     16775 TIP3     992      TIP3     H1       HT       0.417000       1.00800           0
     16776 TIP3     992      TIP3     H2       HT       0.417000       1.00800           0
     16777 TIP3     993      TIP3     OH2      OT      -0.834000       15.9994           0
     16778 TIP3     993      TIP3     H1       HT       0.417000       1.00800           0
     16779 TIP3     993      TIP3     H2       HT       0.417000       1.00800           0
     16780 TIP3     994      TIP3     OH2      OT      -0.834000       15.9994           0
     16781 TIP3     994      TIP3     H1       HT       0.417000       1.00800           0
     16782 TIP3     994      TIP3     H2       HT       0.417000       1.00800           0
     16783 TIP3     995      TIP3     OH2      OT      -0.834000       15.9994           0
     16784 TIP3     995      TIP3     H1       HT       0.417000       1.00800           0
     16785 TIP3     995      TIP3     H2       HT       0.417000       1.00800           0
     16786 TIP3     996      TIP3     OH2      OT      -0.834000       15.9994           0
     16787 TIP3     996      TIP3     H1       HT       0.417000       1.00800           0
     16788 TIP3     996      TIP3     H2       HT       0.417000       1.00800           0
     16789 TIP3     997      TIP3     OH2      OT      -0.834000       15.9994           0
     16790 TIP3     997      TIP3     H1       HT       0.417000       1.00800           0
     16791 TIP3     997      TIP3     H2       HT       0.417000       1.00800           0
     16792 TIP3     998      TIP3     OH2      OT      -0.834000       15.9994           0
     16793 TIP3     998      TIP3     H1       HT       0.417000       1.00800           0
     16794 TIP3     998      TIP3     H2       HT       0.417000       1.00800           0
     16795 TIP3     999      TIP3     OH2      OT      -0.834000       15.9994           0
     16796 TIP3     999      TIP3     H1       HT       0.417000       1.00800           0
     16797 TIP3     999      TIP3     H2       HT       0.417000       1.00800           0
     16798 TIP3     1000     TIP3     OH2      OT      -0.834000       15.9994           0
     16799 TIP3     1000     TIP3     H1       HT       0.417000       1.00800           0
     16800 TIP3     1000     TIP3     H2       HT       0.417000       1.00800           0
     16801 TIP3     1001     TIP3     OH2      OT      -0.834000       15.9994           0
     16802 TIP3     1001     TIP3     H1       HT       0.417000       1.00800           0
     16803 TIP3     1001     TIP3     H2       HT       0.417000       1.00800           0
     16804 TIP3     1002     TIP3     OH2      OT      -0.834000       15.9994           0
     16805 TIP3     1002     TIP3     H1       HT       0.417000       1.00800           0
     16806 TIP3     1002     TIP3     H2       HT       0.417000       1.00800           0
     16807 TIP3     1003     TIP3     OH2      OT      -0.834000       15.9994           0
     16808 TIP3     1003     TIP3     H1       HT       0.417000       1.00800           0
     16809 TIP3     1003     TIP3     H2       HT       0.417000       1.00800           0
     16810 TIP3     1004     TIP3     OH2      OT      -0.834000       15.9994           0
     16811 TIP3     1004     TIP3     H1       HT       0.417000       1.00800           0
     16812 TIP3     1004     TIP3     H2       HT       0.417000       1.00800           0
     16813 TIP3     1005     TIP3     OH2      OT      -0.834000       15.9994           0
     16814 TIP3     1005     TIP3     H1       HT       0.417000       1.00800           0
     16815 TIP3     1005     TIP3     H2       HT       0.417000       1.00800           0
     16816 TIP3     1006     TIP3     OH2      OT      -0.834000       15.9994           0
     16817 TIP3     1006     TIP3     H1       HT       0.417000       1.00800           0
     16818 TIP3     1006     TIP3     H2       HT       0.417000       1.00800           0
     16819 TIP3     1007     TIP3     OH2      OT      -0.834000       15.9994           0
     16820 TIP3     1007     TIP3     H1       HT       0.417000       1.00800           0
     16821 TIP3     1007     TIP3     H2       HT       0.417000       1.00800           0
     16822 TIP3     1008     TIP3     OH2      OT      -0.834000       15.9994           0
     16823 TIP3     1008     TIP3     H1       HT       0.417000       1.00800           0
     16824 TIP3     1008     TIP3     H2       HT       0.417000       1.00800           0
     16825 TIP3     1009     TIP3     OH2      OT      -0.834000       15.9994           0
     16826 TIP3     1009     TIP3     H1       HT       0.417000       1.00800           0
     16827 TIP3     1009     TIP3     H2       HT       0.417000       1.00800           0
     16828 TIP3     1010     TIP3     OH2      OT      -0.834000       15.9994           0
     16829 TIP3     1010     TIP3     H1       HT       0.417000       1.00800           0
     16830 TIP3     1010     TIP3     H2       HT       0.417000       1.00800           0
     16831 TIP3     1011     TIP3     OH2      OT      -0.834000       15.9994           0
     16832 TIP3     1011     TIP3     H1       HT       0.417000       1.00800           0
     16833 TIP3     1011     TIP3     H2       HT       0.417000       1.00800           0
     16834 TIP3     1012     TIP3     OH2      OT      -0.834000       15.9994           0
     16835 TIP3     1012     TIP3     H1       HT       0.417000       1.00800           0
     16836 TIP3     1012     TIP3     H2       HT       0.417000       1.00800           0
     16837 TIP3     1013     TIP3     OH2      OT      -0.834000       15.9994           0
     16838 TIP3     1013     TIP3     H1       HT       0.417000       1.00800           0
     16839 TIP3     1013     TIP3     H2       HT       0.417000       1.00800           0
     16840 TIP3     1014     TIP3     OH2      OT      -0.834000       15.9994           0
     16841 TIP3     1014     TIP3     H1       HT       0.417000       1.00800           0
     16842 TIP3     1014     TIP3     H2       HT       0.417000       1.00800           0
     16843 TIP3     1015     TIP3     OH2      OT      -0.834000       15.9994           0
     16844 TIP3     1015     TIP3     H1       HT       0.417000       1.00800           0
     16845 TIP3     1015     TIP3     H2       HT       0.417000       1.00800           0
     16846 TIP3     1016     TIP3     OH2      OT      -0.834000       15.9994           0
     16847 TIP3     1016     TIP3     H1       HT       0.417000       1.00800           0
     16848 TIP3     1016     TIP3     H2       HT       0.417000       1.00800           0
     16849 TIP3     1017     TIP3     OH2      OT      -0.834000       15.9994           0
     16850 TIP3     1017     TIP3     H1       HT       0.417000       1.00800           0
     16851 TIP3     1017     TIP3     H2       HT       0.417000       1.00800           0
     16852 TIP3     1018     TIP3     OH2      OT      -0.834000       15.9994           0
     16853 TIP3     1018     TIP3     H1       HT       0.417000       1.00800           0
     16854 TIP3     1018     TIP3     H2       HT       0.417000       1.00800           0
     16855 TIP3     1019     TIP3     OH2      OT      -0.834000       15.9994           0
     16856 TIP3     1019     TIP3     H1       HT       0.417000       1.00800           0
     16857 TIP3     1019     TIP3     H2       HT       0.417000       1.00800           0
     16858 TIP3     1020     TIP3     OH2      OT      -0.834000       15.9994           0
     16859 TIP3     1020     TIP3     H1       HT       0.417000       1.00800           0
     16860 TIP3     1020     TIP3     H2       HT       0.417000       1.00800           0
     16861 TIP3     1021     TIP3     OH2      OT      -0.834000       15.9994           0
     16862 TIP3     1021     TIP3     H1       HT       0.417000       1.00800           0
     16863 TIP3     1021     TIP3     H2       HT       0.417000       1.00800           0
     16864 TIP3     1022     TIP3     OH2      OT      -0.834000       15.9994           0
     16865 TIP3     1022     TIP3     H1       HT       0.417000       1.00800           0
     16866 TIP3     1022     TIP3     H2       HT       0.417000       1.00800           0
     16867 TIP3     1023     TIP3     OH2      OT      -0.834000       15.9994           0
     16868 TIP3     1023     TIP3     H1       HT       0.417000       1.00800           0
     16869 TIP3     1023     TIP3     H2       HT       0.417000       1.00800           0
     16870 TIP3     1024     TIP3     OH2      OT      -0.834000       15.9994           0
     16871 TIP3     1024     TIP3     H1       HT       0.417000       1.00800           0
     16872 TIP3     1024     TIP3     H2       HT       0.417000       1.00800           0
     16873 TIP3     1025     TIP3     OH2      OT      -0.834000       15.9994           0
     16874 TIP3     1025     TIP3     H1       HT       0.417000       1.00800           0
     16875 TIP3     1025     TIP3     H2       HT       0.417000       1.00800           0
     16876 TIP3     1026     TIP3     OH2      OT      -0.834000       15.9994           0
     16877 TIP3     1026     TIP3     H1       HT       0.417000       1.00800           0
     16878 TIP3     1026     TIP3     H2       HT       0.417000       1.00800           0
     16879 TIP3     1027     TIP3     OH2      OT      -0.834000       15.9994           0
     16880 TIP3     1027     TIP3     H1       HT       0.417000       1.00800           0
     16881 TIP3     1027     TIP3     H2       HT       0.417000       1.00800           0
     16882 TIP3     1028     TIP3     OH2      OT      -0.834000       15.9994           0
     16883 TIP3     1028     TIP3     H1       HT       0.417000       1.00800           0
     16884 TIP3     1028     TIP3     H2       HT       0.417000       1.00800           0
     16885 TIP3     1029     TIP3     OH2      OT      -0.834000       15.9994           0
     16886 TIP3     1029     TIP3     H1       HT       0.417000       1.00800           0
     16887 TIP3     1029     TIP3     H2       HT       0.417000       1.00800           0
     16888 TIP3     1030     TIP3     OH2      OT      -0.834000       15.9994           0
     16889 TIP3     1030     TIP3     H1       HT       0.417000       1.00800           0
     16890 TIP3     1030     TIP3     H2       HT       0.417000       1.00800           0
     16891 TIP3     1031     TIP3     OH2      OT      -0.834000       15.9994           0
     16892 TIP3     1031     TIP3     H1       HT       0.417000       1.00800           0
     16893 TIP3     1031     TIP3     H2       HT       0.417000       1.00800           0
     16894 TIP3     1032     TIP3     OH2      OT      -0.834000       15.9994           0
     16895 TIP3     1032     TIP3     H1       HT       0.417000       1.00800           0
     16896 TIP3     1032     TIP3     H2       HT       0.417000       1.00800           0
     16897 TIP3     1033     TIP3     OH2      OT      -0.834000       15.9994           0
     16898 TIP3     1033     TIP3     H1       HT       0.417000       1.00800           0
     16899 TIP3     1033     TIP3     H2       HT       0.417000       1.00800           0
     16900 TIP3     1034     TIP3     OH2      OT      -0.834000       15.9994           0
     16901 TIP3     1034     TIP3     H1       HT       0.417000       1.00800           0
     16902 TIP3     1034     TIP3     H2       HT       0.417000       1.00800           0
     16903 TIP3     1035     TIP3     OH2      OT      -0.834000       15.9994           0
     16904 TIP3     1035     TIP3     H1       HT       0.417000       1.00800           0
     16905 TIP3     1035     TIP3     H2       HT       0.417000       1.00800           0
     16906 TIP3     1036     TIP3     OH2      OT      -0.834000       15.9994           0
     16907 TIP3     1036     TIP3     H1       HT       0.417000       1.00800           0
     16908 TIP3     1036     TIP3     H2       HT       0.417000       1.00800           0
     16909 TIP3     1037     TIP3     OH2      OT      -0.834000       15.9994           0
     16910 TIP3     1037     TIP3     H1       HT       0.417000       1.00800           0
     16911 TIP3     1037     TIP3     H2       HT       0.417000       1.00800           0
     16912 TIP3     1038     TIP3     OH2      OT      -0.834000       15.9994           0
     16913 TIP3     1038     TIP3     H1       HT       0.417000       1.00800           0
     16914 TIP3     1038     TIP3     H2       HT       0.417000       1.00800           0
     16915 TIP3     1039     TIP3     OH2      OT      -0.834000       15.9994           0
     16916 TIP3     1039     TIP3     H1       HT       0.417000       1.00800           0
     16917 TIP3     1039     TIP3     H2       HT       0.417000       1.00800           0
     16918 TIP3     1040     TIP3     OH2      OT      -0.834000       15.9994           0
     16919 TIP3     1040     TIP3     H1       HT       0.417000       1.00800           0
     16920 TIP3     1040     TIP3     H2       HT       0.417000       1.00800           0
     16921 TIP3     1041     TIP3     OH2      OT      -0.834000       15.9994           0
     16922 TIP3     1041     TIP3     H1       HT       0.417000       1.00800           0
     16923 TIP3     1041     TIP3     H2       HT       0.417000       1.00800           0
     16924 TIP3     1042     TIP3     OH2      OT      -0.834000       15.9994           0
     16925 TIP3     1042     TIP3     H1       HT       0.417000       1.00800           0
     16926 TIP3     1042     TIP3     H2       HT       0.417000       1.00800           0
     16927 TIP3     1043     TIP3     OH2      OT      -0.834000       15.9994           0
     16928 TIP3     1043     TIP3     H1       HT       0.417000       1.00800           0
     16929 TIP3     1043     TIP3     H2       HT       0.417000       1.00800           0
     16930 TIP3     1044     TIP3     OH2      OT      -0.834000       15.9994           0
     16931 TIP3     1044     TIP3     H1       HT       0.417000       1.00800           0
     16932 TIP3     1044     TIP3     H2       HT       0.417000       1.00800           0
     16933 TIP3     1045     TIP3     OH2      OT      -0.834000       15.9994           0
     16934 TIP3     1045     TIP3     H1       HT       0.417000       1.00800           0
     16935 TIP3     1045     TIP3     H2       HT       0.417000       1.00800           0
     16936 TIP3     1046     TIP3     OH2      OT      -0.834000       15.9994           0
     16937 TIP3     1046     TIP3     H1       HT       0.417000       1.00800           0
     16938 TIP3     1046     TIP3     H2       HT       0.417000       1.00800           0
     16939 TIP3     1047     TIP3     OH2      OT      -0.834000       15.9994           0
     16940 TIP3     1047     TIP3     H1       HT       0.417000       1.00800           0
     16941 TIP3     1047     TIP3     H2       HT       0.417000       1.00800           0
     16942 TIP3     1048     TIP3     OH2      OT      -0.834000       15.9994           0
     16943 TIP3     1048     TIP3     H1       HT       0.417000       1.00800           0
     16944 TIP3     1048     TIP3     H2       HT       0.417000       1.00800           0
     16945 TIP3     1049     TIP3     OH2      OT      -0.834000       15.9994           0
     16946 TIP3     1049     TIP3     H1       HT       0.417000       1.00800           0
     16947 TIP3     1049     TIP3     H2       HT       0.417000       1.00800           0
     16948 TIP3     1050     TIP3     OH2      OT      -0.834000       15.9994           0
     16949 TIP3     1050     TIP3     H1       HT       0.417000       1.00800           0
     16950 TIP3     1050     TIP3     H2       HT       0.417000       1.00800           0
     16951 TIP3     1051     TIP3     OH2      OT      -0.834000       15.9994           0
     16952 TIP3     1051     TIP3     H1       HT       0.417000       1.00800           0
     16953 TIP3     1051     TIP3     H2       HT       0.417000       1.00800           0
     16954 TIP3     1052     TIP3     OH2      OT      -0.834000       15.9994           0
     16955 TIP3     1052     TIP3     H1       HT       0.417000       1.00800           0
     16956 TIP3     1052     TIP3     H2       HT       0.417000       1.00800           0
     16957 TIP3     1053     TIP3     OH2      OT      -0.834000       15.9994           0
     16958 TIP3     1053     TIP3     H1       HT       0.417000       1.00800           0
     16959 TIP3     1053     TIP3     H2       HT       0.417000       1.00800           0
     16960 TIP3     1054     TIP3     OH2      OT      -0.834000       15.9994           0
     16961 TIP3     1054     TIP3     H1       HT       0.417000       1.00800           0
     16962 TIP3     1054     TIP3     H2       HT       0.417000       1.00800           0
     16963 TIP3     1055     TIP3     OH2      OT      -0.834000       15.9994           0
     16964 TIP3     1055     TIP3     H1       HT       0.417000       1.00800           0
     16965 TIP3     1055     TIP3     H2       HT       0.417000       1.00800           0
     16966 TIP3     1056     TIP3     OH2      OT      -0.834000       15.9994           0
     16967 TIP3     1056     TIP3     H1       HT       0.417000       1.00800           0
     16968 TIP3     1056     TIP3     H2       HT       0.417000       1.00800           0
     16969 TIP3     1057     TIP3     OH2      OT      -0.834000       15.9994           0
     16970 TIP3     1057     TIP3     H1       HT       0.417000       1.00800           0
     16971 TIP3     1057     TIP3     H2       HT       0.417000       1.00800           0
     16972 TIP3     1058     TIP3     OH2      OT      -0.834000       15.9994           0
     16973 TIP3     1058     TIP3     H1       HT       0.417000       1.00800           0
     16974 TIP3     1058     TIP3     H2       HT       0.417000       1.00800           0
     16975 TIP3     1059     TIP3     OH2      OT      -0.834000       15.9994           0
     16976 TIP3     1059     TIP3     H1       HT       0.417000       1.00800           0
     16977 TIP3     1059     TIP3     H2       HT       0.417000       1.00800           0
     16978 TIP3     1060     TIP3     OH2      OT      -0.834000       15.9994           0
     16979 TIP3     1060     TIP3     H1       HT       0.417000       1.00800           0
     16980 TIP3     1060     TIP3     H2       HT       0.417000       1.00800           0
     16981 TIP3     1061     TIP3     OH2      OT      -0.834000       15.9994           0
     16982 TIP3     1061     TIP3     H1       HT       0.417000       1.00800           0
     16983 TIP3     1061     TIP3     H2       HT       0.417000       1.00800           0
     16984 TIP3     1062     TIP3     OH2      OT      -0.834000       15.9994           0
     16985 TIP3     1062     TIP3     H1       HT       0.417000       1.00800           0
     16986 TIP3     1062     TIP3     H2       HT       0.417000       1.00800           0
     16987 TIP3     1063     TIP3     OH2      OT      -0.834000       15.9994           0
     16988 TIP3     1063     TIP3     H1       HT       0.417000       1.00800           0
     16989 TIP3     1063     TIP3     H2       HT       0.417000       1.00800           0
     16990 TIP3     1064     TIP3     OH2      OT      -0.834000       15.9994           0
     16991 TIP3     1064     TIP3     H1       HT       0.417000       1.00800           0
     16992 TIP3     1064     TIP3     H2       HT       0.417000       1.00800           0
     16993 TIP3     1065     TIP3     OH2      OT      -0.834000       15.9994           0
     16994 TIP3     1065     TIP3     H1       HT       0.417000       1.00800           0
     16995 TIP3     1065     TIP3     H2       HT       0.417000       1.00800           0
     16996 TIP3     1066     TIP3     OH2      OT      -0.834000       15.9994           0
     16997 TIP3     1066     TIP3     H1       HT       0.417000       1.00800           0
     16998 TIP3     1066     TIP3     H2       HT       0.417000       1.00800           0
     16999 TIP3     1067     TIP3     OH2      OT      -0.834000       15.9994           0
     17000 TIP3     1067     TIP3     H1       HT       0.417000       1.00800           0
     17001 TIP3     1067     TIP3     H2       HT       0.417000       1.00800           0
     17002 TIP3     1068     TIP3     OH2      OT      -0.834000       15.9994           0
     17003 TIP3     1068     TIP3     H1       HT       0.417000       1.00800           0
     17004 TIP3     1068     TIP3     H2       HT       0.417000       1.00800           0
     17005 TIP3     1069     TIP3     OH2      OT      -0.834000       15.9994           0
     17006 TIP3     1069     TIP3     H1       HT       0.417000       1.00800           0
     17007 TIP3     1069     TIP3     H2       HT       0.417000       1.00800           0
     17008 TIP3     1070     TIP3     OH2      OT      -0.834000       15.9994           0
     17009 TIP3     1070     TIP3     H1       HT       0.417000       1.00800           0
     17010 TIP3     1070     TIP3     H2       HT       0.417000       1.00800           0
     17011 TIP3     1071     TIP3     OH2      OT      -0.834000       15.9994           0
     17012 TIP3     1071     TIP3     H1       HT       0.417000       1.00800           0
     17013 TIP3     1071     TIP3     H2       HT       0.417000       1.00800           0
     17014 TIP3     1072     TIP3     OH2      OT      -0.834000       15.9994           0
     17015 TIP3     1072     TIP3     H1       HT       0.417000       1.00800           0
     17016 TIP3     1072     TIP3     H2       HT       0.417000       1.00800           0
     17017 TIP3     1073     TIP3     OH2      OT      -0.834000       15.9994           0
     17018 TIP3     1073     TIP3     H1       HT       0.417000       1.00800           0
     17019 TIP3     1073     TIP3     H2       HT       0.417000       1.00800           0
     17020 TIP3     1074     TIP3     OH2      OT      -0.834000       15.9994           0
     17021 TIP3     1074     TIP3     H1       HT       0.417000       1.00800           0
     17022 TIP3     1074     TIP3     H2       HT       0.417000       1.00800           0
     17023 TIP3     1075     TIP3     OH2      OT      -0.834000       15.9994           0
     17024 TIP3     1075     TIP3     H1       HT       0.417000       1.00800           0
     17025 TIP3     1075     TIP3     H2       HT       0.417000       1.00800           0
     17026 TIP3     1076     TIP3     OH2      OT      -0.834000       15.9994           0
     17027 TIP3     1076     TIP3     H1       HT       0.417000       1.00800           0
     17028 TIP3     1076     TIP3     H2       HT       0.417000       1.00800           0
     17029 TIP3     1077     TIP3     OH2      OT      -0.834000       15.9994           0
     17030 TIP3     1077     TIP3     H1       HT       0.417000       1.00800           0
     17031 TIP3     1077     TIP3     H2       HT       0.417000       1.00800           0
     17032 TIP3     1078     TIP3     OH2      OT      -0.834000       15.9994           0
     17033 TIP3     1078     TIP3     H1       HT       0.417000       1.00800           0
     17034 TIP3     1078     TIP3     H2       HT       0.417000       1.00800           0
     17035 TIP3     1079     TIP3     OH2      OT      -0.834000       15.9994           0
     17036 TIP3     1079     TIP3     H1       HT       0.417000       1.00800           0
     17037 TIP3     1079     TIP3     H2       HT       0.417000       1.00800           0
     17038 TIP3     1080     TIP3     OH2      OT      -0.834000       15.9994           0
     17039 TIP3     1080     TIP3     H1       HT       0.417000       1.00800           0
     17040 TIP3     1080     TIP3     H2       HT       0.417000       1.00800           0
     17041 TIP3     1081     TIP3     OH2      OT      -0.834000       15.9994           0
     17042 TIP3     1081     TIP3     H1       HT       0.417000       1.00800           0
     17043 TIP3     1081     TIP3     H2       HT       0.417000       1.00800           0
     17044 TIP3     1082     TIP3     OH2      OT      -0.834000       15.9994           0
     17045 TIP3     1082     TIP3     H1       HT       0.417000       1.00800           0
     17046 TIP3     1082     TIP3     H2       HT       0.417000       1.00800           0
     17047 TIP3     1083     TIP3     OH2      OT      -0.834000       15.9994           0
     17048 TIP3     1083     TIP3     H1       HT       0.417000       1.00800           0
     17049 TIP3     1083     TIP3     H2       HT       0.417000       1.00800           0
     17050 TIP3     1084     TIP3     OH2      OT      -0.834000       15.9994           0
     17051 TIP3     1084     TIP3     H1       HT       0.417000       1.00800           0
     17052 TIP3     1084     TIP3     H2       HT       0.417000       1.00800           0
     17053 TIP3     1085     TIP3     OH2      OT      -0.834000       15.9994           0
     17054 TIP3     1085     TIP3     H1       HT       0.417000       1.00800           0
     17055 TIP3     1085     TIP3     H2       HT       0.417000       1.00800           0
     17056 TIP3     1086     TIP3     OH2      OT      -0.834000       15.9994           0
     17057 TIP3     1086     TIP3     H1       HT       0.417000       1.00800           0
     17058 TIP3     1086     TIP3     H2       HT       0.417000       1.00800           0
     17059 TIP3     1087     TIP3     OH2      OT      -0.834000       15.9994           0
     17060 TIP3     1087     TIP3     H1       HT       0.417000       1.00800           0
     17061 TIP3     1087     TIP3     H2       HT       0.417000       1.00800           0
     17062 TIP3     1088     TIP3     OH2      OT      -0.834000       15.9994           0
     17063 TIP3     1088     TIP3     H1       HT       0.417000       1.00800           0
     17064 TIP3     1088     TIP3     H2       HT       0.417000       1.00800           0
     17065 TIP3     1089     TIP3     OH2      OT      -0.834000       15.9994           0
     17066 TIP3     1089     TIP3     H1       HT       0.417000       1.00800           0
     17067 TIP3     1089     TIP3     H2       HT       0.417000       1.00800           0
     17068 TIP3     1090     TIP3     OH2      OT      -0.834000       15.9994           0
     17069 TIP3     1090     TIP3     H1       HT       0.417000       1.00800           0
     17070 TIP3     1090     TIP3     H2       HT       0.417000       1.00800           0
     17071 TIP3     1091     TIP3     OH2      OT      -0.834000       15.9994           0
     17072 TIP3     1091     TIP3     H1       HT       0.417000       1.00800           0
     17073 TIP3     1091     TIP3     H2       HT       0.417000       1.00800           0
     17074 TIP3     1092     TIP3     OH2      OT      -0.834000       15.9994           0
     17075 TIP3     1092     TIP3     H1       HT       0.417000       1.00800           0
     17076 TIP3     1092     TIP3     H2       HT       0.417000       1.00800           0
     17077 TIP3     1093     TIP3     OH2      OT      -0.834000       15.9994           0
     17078 TIP3     1093     TIP3     H1       HT       0.417000       1.00800           0
     17079 TIP3     1093     TIP3     H2       HT       0.417000       1.00800           0
     17080 TIP3     1094     TIP3     OH2      OT      -0.834000       15.9994           0
     17081 TIP3     1094     TIP3     H1       HT       0.417000       1.00800           0
     17082 TIP3     1094     TIP3     H2       HT       0.417000       1.00800           0
     17083 TIP3     1095     TIP3     OH2      OT      -0.834000       15.9994           0
     17084 TIP3     1095     TIP3     H1       HT       0.417000       1.00800           0
     17085 TIP3     1095     TIP3     H2       HT       0.417000       1.00800           0
     17086 TIP3     1096     TIP3     OH2      OT      -0.834000       15.9994           0
     17087 TIP3     1096     TIP3     H1       HT       0.417000       1.00800           0
     17088 TIP3     1096     TIP3     H2       HT       0.417000       1.00800           0
     17089 TIP3     1097     TIP3     OH2      OT      -0.834000       15.9994           0
     17090 TIP3     1097     TIP3     H1       HT       0.417000       1.00800           0
     17091 TIP3     1097     TIP3     H2       HT       0.417000       1.00800           0
     17092 TIP3     1098     TIP3     OH2      OT      -0.834000       15.9994           0
     17093 TIP3     1098     TIP3     H1       HT       0.417000       1.00800           0
     17094 TIP3     1098     TIP3     H2       HT       0.417000       1.00800           0
     17095 TIP3     1099     TIP3     OH2      OT      -0.834000       15.9994           0
     17096 TIP3     1099     TIP3     H1       HT       0.417000       1.00800           0
     17097 TIP3     1099     TIP3     H2       HT       0.417000       1.00800           0
     17098 TIP3     1100     TIP3     OH2      OT      -0.834000       15.9994           0
     17099 TIP3     1100     TIP3     H1       HT       0.417000       1.00800           0
     17100 TIP3     1100     TIP3     H2       HT       0.417000       1.00800           0
     17101 TIP3     1101     TIP3     OH2      OT      -0.834000       15.9994           0
     17102 TIP3     1101     TIP3     H1       HT       0.417000       1.00800           0
     17103 TIP3     1101     TIP3     H2       HT       0.417000       1.00800           0
     17104 TIP3     1102     TIP3     OH2      OT      -0.834000       15.9994           0
     17105 TIP3     1102     TIP3     H1       HT       0.417000       1.00800           0
     17106 TIP3     1102     TIP3     H2       HT       0.417000       1.00800           0
     17107 TIP3     1103     TIP3     OH2      OT      -0.834000       15.9994           0
     17108 TIP3     1103     TIP3     H1       HT       0.417000       1.00800           0
     17109 TIP3     1103     TIP3     H2       HT       0.417000       1.00800           0
     17110 TIP3     1104     TIP3     OH2      OT      -0.834000       15.9994           0
     17111 TIP3     1104     TIP3     H1       HT       0.417000       1.00800           0
     17112 TIP3     1104     TIP3     H2       HT       0.417000       1.00800           0
     17113 TIP3     1105     TIP3     OH2      OT      -0.834000       15.9994           0
     17114 TIP3     1105     TIP3     H1       HT       0.417000       1.00800           0
     17115 TIP3     1105     TIP3     H2       HT       0.417000       1.00800           0
     17116 TIP3     1106     TIP3     OH2      OT      -0.834000       15.9994           0
     17117 TIP3     1106     TIP3     H1       HT       0.417000       1.00800           0
     17118 TIP3     1106     TIP3     H2       HT       0.417000       1.00800           0
     17119 TIP3     1107     TIP3     OH2      OT      -0.834000       15.9994           0
     17120 TIP3     1107     TIP3     H1       HT       0.417000       1.00800           0
     17121 TIP3     1107     TIP3     H2       HT       0.417000       1.00800           0
     17122 TIP3     1108     TIP3     OH2      OT      -0.834000       15.9994           0
     17123 TIP3     1108     TIP3     H1       HT       0.417000       1.00800           0
     17124 TIP3     1108     TIP3     H2       HT       0.417000       1.00800           0
     17125 TIP3     1109     TIP3     OH2      OT      -0.834000       15.9994           0
     17126 TIP3     1109     TIP3     H1       HT       0.417000       1.00800           0
     17127 TIP3     1109     TIP3     H2       HT       0.417000       1.00800           0
     17128 TIP3     1110     TIP3     OH2      OT      -0.834000       15.9994           0
     17129 TIP3     1110     TIP3     H1       HT       0.417000       1.00800           0
     17130 TIP3     1110     TIP3     H2       HT       0.417000       1.00800           0
     17131 TIP3     1111     TIP3     OH2      OT      -0.834000       15.9994           0
     17132 TIP3     1111     TIP3     H1       HT       0.417000       1.00800           0
     17133 TIP3     1111     TIP3     H2       HT       0.417000       1.00800           0
     17134 TIP3     1112     TIP3     OH2      OT      -0.834000       15.9994           0
     17135 TIP3     1112     TIP3     H1       HT       0.417000       1.00800           0
     17136 TIP3     1112     TIP3     H2       HT       0.417000       1.00800           0
     17137 TIP3     1113     TIP3     OH2      OT      -0.834000       15.9994           0
     17138 TIP3     1113     TIP3     H1       HT       0.417000       1.00800           0
     17139 TIP3     1113     TIP3     H2       HT       0.417000       1.00800           0
     17140 TIP3     1114     TIP3     OH2      OT      -0.834000       15.9994           0
     17141 TIP3     1114     TIP3     H1       HT       0.417000       1.00800           0
     17142 TIP3     1114     TIP3     H2       HT       0.417000       1.00800           0
     17143 TIP3     1115     TIP3     OH2      OT      -0.834000       15.9994           0
     17144 TIP3     1115     TIP3     H1       HT       0.417000       1.00800           0
     17145 TIP3     1115     TIP3     H2       HT       0.417000       1.00800           0
     17146 TIP3     1116     TIP3     OH2      OT      -0.834000       15.9994           0
     17147 TIP3     1116     TIP3     H1       HT       0.417000       1.00800           0
     17148 TIP3     1116     TIP3     H2       HT       0.417000       1.00800           0
     17149 TIP3     1117     TIP3     OH2      OT      -0.834000       15.9994           0
     17150 TIP3     1117     TIP3     H1       HT       0.417000       1.00800           0
     17151 TIP3     1117     TIP3     H2       HT       0.417000       1.00800           0
     17152 TIP3     1118     TIP3     OH2      OT      -0.834000       15.9994           0
     17153 TIP3     1118     TIP3     H1       HT       0.417000       1.00800           0
     17154 TIP3     1118     TIP3     H2       HT       0.417000       1.00800           0
     17155 TIP3     1119     TIP3     OH2      OT      -0.834000       15.9994           0
     17156 TIP3     1119     TIP3     H1       HT       0.417000       1.00800           0
     17157 TIP3     1119     TIP3     H2       HT       0.417000       1.00800           0
     17158 TIP3     1120     TIP3     OH2      OT      -0.834000       15.9994           0
     17159 TIP3     1120     TIP3     H1       HT       0.417000       1.00800           0
     17160 TIP3     1120     TIP3     H2       HT       0.417000       1.00800           0
     17161 TIP3     1121     TIP3     OH2      OT      -0.834000       15.9994           0
     17162 TIP3     1121     TIP3     H1       HT       0.417000       1.00800           0
     17163 TIP3     1121     TIP3     H2       HT       0.417000       1.00800           0
     17164 TIP3     1122     TIP3     OH2      OT      -0.834000       15.9994           0
     17165 TIP3     1122     TIP3     H1       HT       0.417000       1.00800           0
     17166 TIP3     1122     TIP3     H2       HT       0.417000       1.00800           0
     17167 TIP3     1123     TIP3     OH2      OT      -0.834000       15.9994           0
     17168 TIP3     1123     TIP3     H1       HT       0.417000       1.00800           0
     17169 TIP3     1123     TIP3     H2       HT       0.417000       1.00800           0
     17170 TIP3     1124     TIP3     OH2      OT      -0.834000       15.9994           0
     17171 TIP3     1124     TIP3     H1       HT       0.417000       1.00800           0
     17172 TIP3     1124     TIP3     H2       HT       0.417000       1.00800           0
     17173 TIP3     1125     TIP3     OH2      OT      -0.834000       15.9994           0
     17174 TIP3     1125     TIP3     H1       HT       0.417000       1.00800           0
     17175 TIP3     1125     TIP3     H2       HT       0.417000       1.00800           0
     17176 TIP3     1126     TIP3     OH2      OT      -0.834000       15.9994           0
     17177 TIP3     1126     TIP3     H1       HT       0.417000       1.00800           0
     17178 TIP3     1126     TIP3     H2       HT       0.417000       1.00800           0
     17179 TIP3     1127     TIP3     OH2      OT      -0.834000       15.9994           0
     17180 TIP3     1127     TIP3     H1       HT       0.417000       1.00800           0
     17181 TIP3     1127     TIP3     H2       HT       0.417000       1.00800           0
     17182 TIP3     1128     TIP3     OH2      OT      -0.834000       15.9994           0
     17183 TIP3     1128     TIP3     H1       HT       0.417000       1.00800           0
     17184 TIP3     1128     TIP3     H2       HT       0.417000       1.00800           0
     17185 TIP3     1129     TIP3     OH2      OT      -0.834000       15.9994           0
     17186 TIP3     1129     TIP3     H1       HT       0.417000       1.00800           0
     17187 TIP3     1129     TIP3     H2       HT       0.417000       1.00800           0
     17188 TIP3     1130     TIP3     OH2      OT      -0.834000       15.9994           0
     17189 TIP3     1130     TIP3     H1       HT       0.417000       1.00800           0
     17190 TIP3     1130     TIP3     H2       HT       0.417000       1.00800           0
     17191 TIP3     1131     TIP3     OH2      OT      -0.834000       15.9994           0
     17192 TIP3     1131     TIP3     H1       HT       0.417000       1.00800           0
     17193 TIP3     1131     TIP3     H2       HT       0.417000       1.00800           0
     17194 TIP3     1132     TIP3     OH2      OT      -0.834000       15.9994           0
     17195 TIP3     1132     TIP3     H1       HT       0.417000       1.00800           0
     17196 TIP3     1132     TIP3     H2       HT       0.417000       1.00800           0
     17197 TIP3     1133     TIP3     OH2      OT      -0.834000       15.9994           0
     17198 TIP3     1133     TIP3     H1       HT       0.417000       1.00800           0
     17199 TIP3     1133     TIP3     H2       HT       0.417000       1.00800           0
     17200 TIP3     1134     TIP3     OH2      OT      -0.834000       15.9994           0
     17201 TIP3     1134     TIP3     H1       HT       0.417000       1.00800           0
     17202 TIP3     1134     TIP3     H2       HT       0.417000       1.00800           0
     17203 TIP3     1135     TIP3     OH2      OT      -0.834000       15.9994           0
     17204 TIP3     1135     TIP3     H1       HT       0.417000       1.00800           0
     17205 TIP3     1135     TIP3     H2       HT       0.417000       1.00800           0
     17206 TIP3     1136     TIP3     OH2      OT      -0.834000       15.9994           0
     17207 TIP3     1136     TIP3     H1       HT       0.417000       1.00800           0
     17208 TIP3     1136     TIP3     H2       HT       0.417000       1.00800           0
     17209 TIP3     1137     TIP3     OH2      OT      -0.834000       15.9994           0
     17210 TIP3     1137     TIP3     H1       HT       0.417000       1.00800           0
     17211 TIP3     1137     TIP3     H2       HT       0.417000       1.00800           0
     17212 TIP3     1138     TIP3     OH2      OT      -0.834000       15.9994           0
     17213 TIP3     1138     TIP3     H1       HT       0.417000       1.00800           0
     17214 TIP3     1138     TIP3     H2       HT       0.417000       1.00800           0
     17215 TIP3     1139     TIP3     OH2      OT      -0.834000       15.9994           0
     17216 TIP3     1139     TIP3     H1       HT       0.417000       1.00800           0
     17217 TIP3     1139     TIP3     H2       HT       0.417000       1.00800           0
     17218 TIP3     1140     TIP3     OH2      OT      -0.834000       15.9994           0
     17219 TIP3     1140     TIP3     H1       HT       0.417000       1.00800           0
     17220 TIP3     1140     TIP3     H2       HT       0.417000       1.00800           0
     17221 TIP3     1141     TIP3     OH2      OT      -0.834000       15.9994           0
     17222 TIP3     1141     TIP3     H1       HT       0.417000       1.00800           0
     17223 TIP3     1141     TIP3     H2       HT       0.417000       1.00800           0
     17224 TIP3     1142     TIP3     OH2      OT      -0.834000       15.9994           0
     17225 TIP3     1142     TIP3     H1       HT       0.417000       1.00800           0
     17226 TIP3     1142     TIP3     H2       HT       0.417000       1.00800           0
     17227 TIP3     1143     TIP3     OH2      OT      -0.834000       15.9994           0
     17228 TIP3     1143     TIP3     H1       HT       0.417000       1.00800           0
     17229 TIP3     1143     TIP3     H2       HT       0.417000       1.00800           0
     17230 TIP3     1144     TIP3     OH2      OT      -0.834000       15.9994           0
     17231 TIP3     1144     TIP3     H1       HT       0.417000       1.00800           0
     17232 TIP3     1144     TIP3     H2       HT       0.417000       1.00800           0
     17233 TIP3     1145     TIP3     OH2      OT      -0.834000       15.9994           0
     17234 TIP3     1145     TIP3     H1       HT       0.417000       1.00800           0
     17235 TIP3     1145     TIP3     H2       HT       0.417000       1.00800           0
     17236 TIP3     1146     TIP3     OH2      OT      -0.834000       15.9994           0
     17237 TIP3     1146     TIP3     H1       HT       0.417000       1.00800           0
     17238 TIP3     1146     TIP3     H2       HT       0.417000       1.00800           0
     17239 TIP3     1147     TIP3     OH2      OT      -0.834000       15.9994           0
     17240 TIP3     1147     TIP3     H1       HT       0.417000       1.00800           0
     17241 TIP3     1147     TIP3     H2       HT       0.417000       1.00800           0
     17242 TIP3     1148     TIP3     OH2      OT      -0.834000       15.9994           0
     17243 TIP3     1148     TIP3     H1       HT       0.417000       1.00800           0
     17244 TIP3     1148     TIP3     H2       HT       0.417000       1.00800           0
     17245 TIP3     1149     TIP3     OH2      OT      -0.834000       15.9994           0
     17246 TIP3     1149     TIP3     H1       HT       0.417000       1.00800           0
     17247 TIP3     1149     TIP3     H2       HT       0.417000       1.00800           0
     17248 TIP3     1150     TIP3     OH2      OT      -0.834000       15.9994           0
     17249 TIP3     1150     TIP3     H1       HT       0.417000       1.00800           0
     17250 TIP3     1150     TIP3     H2       HT       0.417000       1.00800           0
     17251 TIP3     1151     TIP3     OH2      OT      -0.834000       15.9994           0
     17252 TIP3     1151     TIP3     H1       HT       0.417000       1.00800           0
     17253 TIP3     1151     TIP3     H2       HT       0.417000       1.00800           0
     17254 TIP3     1152     TIP3     OH2      OT      -0.834000       15.9994           0
     17255 TIP3     1152     TIP3     H1       HT       0.417000       1.00800           0
     17256 TIP3     1152     TIP3     H2       HT       0.417000       1.00800           0
     17257 TIP3     1153     TIP3     OH2      OT      -0.834000       15.9994           0
     17258 TIP3     1153     TIP3     H1       HT       0.417000       1.00800           0
     17259 TIP3     1153     TIP3     H2       HT       0.417000       1.00800           0
     17260 TIP3     1154     TIP3     OH2      OT      -0.834000       15.9994           0
     17261 TIP3     1154     TIP3     H1       HT       0.417000       1.00800           0
     17262 TIP3     1154     TIP3     H2       HT       0.417000       1.00800           0
     17263 TIP3     1155     TIP3     OH2      OT      -0.834000       15.9994           0
     17264 TIP3     1155     TIP3     H1       HT       0.417000       1.00800           0
     17265 TIP3     1155     TIP3     H2       HT       0.417000       1.00800           0
     17266 TIP3     1156     TIP3     OH2      OT      -0.834000       15.9994           0
     17267 TIP3     1156     TIP3     H1       HT       0.417000       1.00800           0
     17268 TIP3     1156     TIP3     H2       HT       0.417000       1.00800           0
     17269 TIP3     1157     TIP3     OH2      OT      -0.834000       15.9994           0
     17270 TIP3     1157     TIP3     H1       HT       0.417000       1.00800           0
     17271 TIP3     1157     TIP3     H2       HT       0.417000       1.00800           0
     17272 TIP3     1158     TIP3     OH2      OT      -0.834000       15.9994           0
     17273 TIP3     1158     TIP3     H1       HT       0.417000       1.00800           0
     17274 TIP3     1158     TIP3     H2       HT       0.417000       1.00800           0
     17275 TIP3     1159     TIP3     OH2      OT      -0.834000       15.9994           0
     17276 TIP3     1159     TIP3     H1       HT       0.417000       1.00800           0
     17277 TIP3     1159     TIP3     H2       HT       0.417000       1.00800           0
     17278 TIP3     1160     TIP3     OH2      OT      -0.834000       15.9994           0
     17279 TIP3     1160     TIP3     H1       HT       0.417000       1.00800           0
     17280 TIP3     1160     TIP3     H2       HT       0.417000       1.00800           0
     17281 TIP3     1161     TIP3     OH2      OT      -0.834000       15.9994           0
     17282 TIP3     1161     TIP3     H1       HT       0.417000       1.00800           0
     17283 TIP3     1161     TIP3     H2       HT       0.417000       1.00800           0
     17284 TIP3     1162     TIP3     OH2      OT      -0.834000       15.9994           0
     17285 TIP3     1162     TIP3     H1       HT       0.417000       1.00800           0
     17286 TIP3     1162     TIP3     H2       HT       0.417000       1.00800           0
     17287 TIP3     1163     TIP3     OH2      OT      -0.834000       15.9994           0
     17288 TIP3     1163     TIP3     H1       HT       0.417000       1.00800           0
     17289 TIP3     1163     TIP3     H2       HT       0.417000       1.00800           0
     17290 TIP3     1164     TIP3     OH2      OT      -0.834000       15.9994           0
     17291 TIP3     1164     TIP3     H1       HT       0.417000       1.00800           0
     17292 TIP3     1164     TIP3     H2       HT       0.417000       1.00800           0
     17293 TIP3     1165     TIP3     OH2      OT      -0.834000       15.9994           0
     17294 TIP3     1165     TIP3     H1       HT       0.417000       1.00800           0
     17295 TIP3     1165     TIP3     H2       HT       0.417000       1.00800           0
     17296 TIP3     1166     TIP3     OH2      OT      -0.834000       15.9994           0
     17297 TIP3     1166     TIP3     H1       HT       0.417000       1.00800           0
     17298 TIP3     1166     TIP3     H2       HT       0.417000       1.00800           0
     17299 TIP3     1167     TIP3     OH2      OT      -0.834000       15.9994           0
     17300 TIP3     1167     TIP3     H1       HT       0.417000       1.00800           0
     17301 TIP3     1167     TIP3     H2       HT       0.417000       1.00800           0
     17302 TIP3     1168     TIP3     OH2      OT      -0.834000       15.9994           0
     17303 TIP3     1168     TIP3     H1       HT       0.417000       1.00800           0
     17304 TIP3     1168     TIP3     H2       HT       0.417000       1.00800           0
     17305 TIP3     1169     TIP3     OH2      OT      -0.834000       15.9994           0
     17306 TIP3     1169     TIP3     H1       HT       0.417000       1.00800           0
     17307 TIP3     1169     TIP3     H2       HT       0.417000       1.00800           0
     17308 TIP3     1170     TIP3     OH2      OT      -0.834000       15.9994           0
     17309 TIP3     1170     TIP3     H1       HT       0.417000       1.00800           0
     17310 TIP3     1170     TIP3     H2       HT       0.417000       1.00800           0
     17311 TIP3     1171     TIP3     OH2      OT      -0.834000       15.9994           0
     17312 TIP3     1171     TIP3     H1       HT       0.417000       1.00800           0
     17313 TIP3     1171     TIP3     H2       HT       0.417000       1.00800           0
     17314 TIP3     1172     TIP3     OH2      OT      -0.834000       15.9994           0
     17315 TIP3     1172     TIP3     H1       HT       0.417000       1.00800           0
     17316 TIP3     1172     TIP3     H2       HT       0.417000       1.00800           0
     17317 TIP3     1173     TIP3     OH2      OT      -0.834000       15.9994           0
     17318 TIP3     1173     TIP3     H1       HT       0.417000       1.00800           0
     17319 TIP3     1173     TIP3     H2       HT       0.417000       1.00800           0
     17320 TIP3     1174     TIP3     OH2      OT      -0.834000       15.9994           0
     17321 TIP3     1174     TIP3     H1       HT       0.417000       1.00800           0
     17322 TIP3     1174     TIP3     H2       HT       0.417000       1.00800           0
     17323 TIP3     1175     TIP3     OH2      OT      -0.834000       15.9994           0
     17324 TIP3     1175     TIP3     H1       HT       0.417000       1.00800           0
     17325 TIP3     1175     TIP3     H2       HT       0.417000       1.00800           0
     17326 TIP3     1176     TIP3     OH2      OT      -0.834000       15.9994           0
     17327 TIP3     1176     TIP3     H1       HT       0.417000       1.00800           0
     17328 TIP3     1176     TIP3     H2       HT       0.417000       1.00800           0
     17329 TIP3     1177     TIP3     OH2      OT      -0.834000       15.9994           0
     17330 TIP3     1177     TIP3     H1       HT       0.417000       1.00800           0
     17331 TIP3     1177     TIP3     H2       HT       0.417000       1.00800           0
     17332 TIP3     1178     TIP3     OH2      OT      -0.834000       15.9994           0
     17333 TIP3     1178     TIP3     H1       HT       0.417000       1.00800           0
     17334 TIP3     1178     TIP3     H2       HT       0.417000       1.00800           0
     17335 TIP3     1179     TIP3     OH2      OT      -0.834000       15.9994           0
     17336 TIP3     1179     TIP3     H1       HT       0.417000       1.00800           0
     17337 TIP3     1179     TIP3     H2       HT       0.417000       1.00800           0
     17338 TIP3     1180     TIP3     OH2      OT      -0.834000       15.9994           0
     17339 TIP3     1180     TIP3     H1       HT       0.417000       1.00800           0
     17340 TIP3     1180     TIP3     H2       HT       0.417000       1.00800           0
     17341 TIP3     1181     TIP3     OH2      OT      -0.834000       15.9994           0
     17342 TIP3     1181     TIP3     H1       HT       0.417000       1.00800           0
     17343 TIP3     1181     TIP3     H2       HT       0.417000       1.00800           0
     17344 TIP3     1182     TIP3     OH2      OT      -0.834000       15.9994           0
     17345 TIP3     1182     TIP3     H1       HT       0.417000       1.00800           0
     17346 TIP3     1182     TIP3     H2       HT       0.417000       1.00800           0
     17347 TIP3     1183     TIP3     OH2      OT      -0.834000       15.9994           0
     17348 TIP3     1183     TIP3     H1       HT       0.417000       1.00800           0
     17349 TIP3     1183     TIP3     H2       HT       0.417000       1.00800           0
     17350 TIP3     1184     TIP3     OH2      OT      -0.834000       15.9994           0
     17351 TIP3     1184     TIP3     H1       HT       0.417000       1.00800           0
     17352 TIP3     1184     TIP3     H2       HT       0.417000       1.00800           0
     17353 TIP3     1185     TIP3     OH2      OT      -0.834000       15.9994           0
     17354 TIP3     1185     TIP3     H1       HT       0.417000       1.00800           0
     17355 TIP3     1185     TIP3     H2       HT       0.417000       1.00800           0
     17356 TIP3     1186     TIP3     OH2      OT      -0.834000       15.9994           0
     17357 TIP3     1186     TIP3     H1       HT       0.417000       1.00800           0
     17358 TIP3     1186     TIP3     H2       HT       0.417000       1.00800           0
     17359 TIP3     1187     TIP3     OH2      OT      -0.834000       15.9994           0
     17360 TIP3     1187     TIP3     H1       HT       0.417000       1.00800           0
     17361 TIP3     1187     TIP3     H2       HT       0.417000       1.00800           0
     17362 TIP3     1188     TIP3     OH2      OT      -0.834000       15.9994           0
     17363 TIP3     1188     TIP3     H1       HT       0.417000       1.00800           0
     17364 TIP3     1188     TIP3     H2       HT       0.417000       1.00800           0
     17365 TIP3     1189     TIP3     OH2      OT      -0.834000       15.9994           0
     17366 TIP3     1189     TIP3     H1       HT       0.417000       1.00800           0
     17367 TIP3     1189     TIP3     H2       HT       0.417000       1.00800           0
     17368 TIP3     1190     TIP3     OH2      OT      -0.834000       15.9994           0
     17369 TIP3     1190     TIP3     H1       HT       0.417000       1.00800           0
     17370 TIP3     1190     TIP3     H2       HT       0.417000       1.00800           0
     17371 TIP3     1191     TIP3     OH2      OT      -0.834000       15.9994           0
     17372 TIP3     1191     TIP3     H1       HT       0.417000       1.00800           0
     17373 TIP3     1191     TIP3     H2       HT       0.417000       1.00800           0
     17374 TIP3     1192     TIP3     OH2      OT      -0.834000       15.9994           0
     17375 TIP3     1192     TIP3     H1       HT       0.417000       1.00800           0
     17376 TIP3     1192     TIP3     H2       HT       0.417000       1.00800           0
     17377 TIP3     1193     TIP3     OH2      OT      -0.834000       15.9994           0
     17378 TIP3     1193     TIP3     H1       HT       0.417000       1.00800           0
     17379 TIP3     1193     TIP3     H2       HT       0.417000       1.00800           0
     17380 TIP3     1194     TIP3     OH2      OT      -0.834000       15.9994           0
     17381 TIP3     1194     TIP3     H1       HT       0.417000       1.00800           0
     17382 TIP3     1194     TIP3     H2       HT       0.417000       1.00800           0
     17383 TIP3     1195     TIP3     OH2      OT      -0.834000       15.9994           0
     17384 TIP3     1195     TIP3     H1       HT       0.417000       1.00800           0
     17385 TIP3     1195     TIP3     H2       HT       0.417000       1.00800           0
     17386 TIP3     1196     TIP3     OH2      OT      -0.834000       15.9994           0
     17387 TIP3     1196     TIP3     H1       HT       0.417000       1.00800           0
     17388 TIP3     1196     TIP3     H2       HT       0.417000       1.00800           0
     17389 TIP3     1197     TIP3     OH2      OT      -0.834000       15.9994           0
     17390 TIP3     1197     TIP3     H1       HT       0.417000       1.00800           0
     17391 TIP3     1197     TIP3     H2       HT       0.417000       1.00800           0
     17392 TIP3     1198     TIP3     OH2      OT      -0.834000       15.9994           0
     17393 TIP3     1198     TIP3     H1       HT       0.417000       1.00800           0
     17394 TIP3     1198     TIP3     H2       HT       0.417000       1.00800           0
     17395 TIP3     1199     TIP3     OH2      OT      -0.834000       15.9994           0
     17396 TIP3     1199     TIP3     H1       HT       0.417000       1.00800           0
     17397 TIP3     1199     TIP3     H2       HT       0.417000       1.00800           0
     17398 TIP3     1200     TIP3     OH2      OT      -0.834000       15.9994           0
     17399 TIP3     1200     TIP3     H1       HT       0.417000       1.00800           0
     17400 TIP3     1200     TIP3     H2       HT       0.417000       1.00800           0
     17401 TIP3     1201     TIP3     OH2      OT      -0.834000       15.9994           0
     17402 TIP3     1201     TIP3     H1       HT       0.417000       1.00800           0
     17403 TIP3     1201     TIP3     H2       HT       0.417000       1.00800           0
     17404 TIP3     1202     TIP3     OH2      OT      -0.834000       15.9994           0
     17405 TIP3     1202     TIP3     H1       HT       0.417000       1.00800           0
     17406 TIP3     1202     TIP3     H2       HT       0.417000       1.00800           0
     17407 TIP3     1203     TIP3     OH2      OT      -0.834000       15.9994           0
     17408 TIP3     1203     TIP3     H1       HT       0.417000       1.00800           0
     17409 TIP3     1203     TIP3     H2       HT       0.417000       1.00800           0
     17410 TIP3     1204     TIP3     OH2      OT      -0.834000       15.9994           0
     17411 TIP3     1204     TIP3     H1       HT       0.417000       1.00800           0
     17412 TIP3     1204     TIP3     H2       HT       0.417000       1.00800           0
     17413 TIP3     1205     TIP3     OH2      OT      -0.834000       15.9994           0
     17414 TIP3     1205     TIP3     H1       HT       0.417000       1.00800           0
     17415 TIP3     1205     TIP3     H2       HT       0.417000       1.00800           0
     17416 TIP3     1206     TIP3     OH2      OT      -0.834000       15.9994           0
     17417 TIP3     1206     TIP3     H1       HT       0.417000       1.00800           0
     17418 TIP3     1206     TIP3     H2       HT       0.417000       1.00800           0
     17419 TIP3     1207     TIP3     OH2      OT      -0.834000       15.9994           0
     17420 TIP3     1207     TIP3     H1       HT       0.417000       1.00800           0
     17421 TIP3     1207     TIP3     H2       HT       0.417000       1.00800           0
     17422 TIP3     1208     TIP3     OH2      OT      -0.834000       15.9994           0
     17423 TIP3     1208     TIP3     H1       HT       0.417000       1.00800           0
     17424 TIP3     1208     TIP3     H2       HT       0.417000       1.00800           0
     17425 TIP3     1209     TIP3     OH2      OT      -0.834000       15.9994           0
     17426 TIP3     1209     TIP3     H1       HT       0.417000       1.00800           0
     17427 TIP3     1209     TIP3     H2       HT       0.417000       1.00800           0
     17428 TIP3     1210     TIP3     OH2      OT      -0.834000       15.9994           0
     17429 TIP3     1210     TIP3     H1       HT       0.417000       1.00800           0
     17430 TIP3     1210     TIP3     H2       HT       0.417000       1.00800           0
     17431 TIP3     1211     TIP3     OH2      OT      -0.834000       15.9994           0
     17432 TIP3     1211     TIP3     H1       HT       0.417000       1.00800           0
     17433 TIP3     1211     TIP3     H2       HT       0.417000       1.00800           0
     17434 TIP3     1212     TIP3     OH2      OT      -0.834000       15.9994           0
     17435 TIP3     1212     TIP3     H1       HT       0.417000       1.00800           0
     17436 TIP3     1212     TIP3     H2       HT       0.417000       1.00800           0
     17437 TIP3     1213     TIP3     OH2      OT      -0.834000       15.9994           0
     17438 TIP3     1213     TIP3     H1       HT       0.417000       1.00800           0
     17439 TIP3     1213     TIP3     H2       HT       0.417000       1.00800           0
     17440 TIP3     1214     TIP3     OH2      OT      -0.834000       15.9994           0
     17441 TIP3     1214     TIP3     H1       HT       0.417000       1.00800           0
     17442 TIP3     1214     TIP3     H2       HT       0.417000       1.00800           0
     17443 TIP3     1215     TIP3     OH2      OT      -0.834000       15.9994           0
     17444 TIP3     1215     TIP3     H1       HT       0.417000       1.00800           0
     17445 TIP3     1215     TIP3     H2       HT       0.417000       1.00800           0
     17446 TIP3     1216     TIP3     OH2      OT      -0.834000       15.9994           0
     17447 TIP3     1216     TIP3     H1       HT       0.417000       1.00800           0
     17448 TIP3     1216     TIP3     H2       HT       0.417000       1.00800           0
     17449 TIP3     1217     TIP3     OH2      OT      -0.834000       15.9994           0
     17450 TIP3     1217     TIP3     H1       HT       0.417000       1.00800           0
     17451 TIP3     1217     TIP3     H2       HT       0.417000       1.00800           0
     17452 TIP3     1218     TIP3     OH2      OT      -0.834000       15.9994           0
     17453 TIP3     1218     TIP3     H1       HT       0.417000       1.00800           0
     17454 TIP3     1218     TIP3     H2       HT       0.417000       1.00800           0
     17455 TIP3     1219     TIP3     OH2      OT      -0.834000       15.9994           0
     17456 TIP3     1219     TIP3     H1       HT       0.417000       1.00800           0
     17457 TIP3     1219     TIP3     H2       HT       0.417000       1.00800           0
     17458 TIP3     1220     TIP3     OH2      OT      -0.834000       15.9994           0
     17459 TIP3     1220     TIP3     H1       HT       0.417000       1.00800           0
     17460 TIP3     1220     TIP3     H2       HT       0.417000       1.00800           0
     17461 TIP3     1221     TIP3     OH2      OT      -0.834000       15.9994           0
     17462 TIP3     1221     TIP3     H1       HT       0.417000       1.00800           0
     17463 TIP3     1221     TIP3     H2       HT       0.417000       1.00800           0
     17464 TIP3     1222     TIP3     OH2      OT      -0.834000       15.9994           0
     17465 TIP3     1222     TIP3     H1       HT       0.417000       1.00800           0
     17466 TIP3     1222     TIP3     H2       HT       0.417000       1.00800           0
     17467 TIP3     1223     TIP3     OH2      OT      -0.834000       15.9994           0
     17468 TIP3     1223     TIP3     H1       HT       0.417000       1.00800           0
     17469 TIP3     1223     TIP3     H2       HT       0.417000       1.00800           0
     17470 TIP3     1224     TIP3     OH2      OT      -0.834000       15.9994           0
     17471 TIP3     1224     TIP3     H1       HT       0.417000       1.00800           0
     17472 TIP3     1224     TIP3     H2       HT       0.417000       1.00800           0
     17473 TIP3     1225     TIP3     OH2      OT      -0.834000       15.9994           0
     17474 TIP3     1225     TIP3     H1       HT       0.417000       1.00800           0
     17475 TIP3     1225     TIP3     H2       HT       0.417000       1.00800           0
     17476 TIP3     1226     TIP3     OH2      OT      -0.834000       15.9994           0
     17477 TIP3     1226     TIP3     H1       HT       0.417000       1.00800           0
     17478 TIP3     1226     TIP3     H2       HT       0.417000       1.00800           0
     17479 TIP3     1227     TIP3     OH2      OT      -0.834000       15.9994           0
     17480 TIP3     1227     TIP3     H1       HT       0.417000       1.00800           0
     17481 TIP3     1227     TIP3     H2       HT       0.417000       1.00800           0
     17482 TIP3     1228     TIP3     OH2      OT      -0.834000       15.9994           0
     17483 TIP3     1228     TIP3     H1       HT       0.417000       1.00800           0
     17484 TIP3     1228     TIP3     H2       HT       0.417000       1.00800           0
     17485 TIP3     1229     TIP3     OH2      OT      -0.834000       15.9994           0
     17486 TIP3     1229     TIP3     H1       HT       0.417000       1.00800           0
     17487 TIP3     1229     TIP3     H2       HT       0.417000       1.00800           0
     17488 TIP3     1230     TIP3     OH2      OT      -0.834000       15.9994           0
     17489 TIP3     1230     TIP3     H1       HT       0.417000       1.00800           0
     17490 TIP3     1230     TIP3     H2       HT       0.417000       1.00800           0
     17491 TIP3     1231     TIP3     OH2      OT      -0.834000       15.9994           0
     17492 TIP3     1231     TIP3     H1       HT       0.417000       1.00800           0
     17493 TIP3     1231     TIP3     H2       HT       0.417000       1.00800           0
     17494 TIP3     1232     TIP3     OH2      OT      -0.834000       15.9994           0
     17495 TIP3     1232     TIP3     H1       HT       0.417000       1.00800           0
     17496 TIP3     1232     TIP3     H2       HT       0.417000       1.00800           0
     17497 TIP3     1233     TIP3     OH2      OT      -0.834000       15.9994           0
     17498 TIP3     1233     TIP3     H1       HT       0.417000       1.00800           0
     17499 TIP3     1233     TIP3     H2       HT       0.417000       1.00800           0
     17500 TIP3     1234     TIP3     OH2      OT      -0.834000       15.9994           0
     17501 TIP3     1234     TIP3     H1       HT       0.417000       1.00800           0
     17502 TIP3     1234     TIP3     H2       HT       0.417000       1.00800           0
     17503 TIP3     1235     TIP3     OH2      OT      -0.834000       15.9994           0
     17504 TIP3     1235     TIP3     H1       HT       0.417000       1.00800           0
     17505 TIP3     1235     TIP3     H2       HT       0.417000       1.00800           0
     17506 TIP3     1236     TIP3     OH2      OT      -0.834000       15.9994           0
     17507 TIP3     1236     TIP3     H1       HT       0.417000       1.00800           0
     17508 TIP3     1236     TIP3     H2       HT       0.417000       1.00800           0
     17509 TIP3     1237     TIP3     OH2      OT      -0.834000       15.9994           0
     17510 TIP3     1237     TIP3     H1       HT       0.417000       1.00800           0
     17511 TIP3     1237     TIP3     H2       HT       0.417000       1.00800           0
     17512 TIP3     1238     TIP3     OH2      OT      -0.834000       15.9994           0
     17513 TIP3     1238     TIP3     H1       HT       0.417000       1.00800           0
     17514 TIP3     1238     TIP3     H2       HT       0.417000       1.00800           0
     17515 TIP3     1239     TIP3     OH2      OT      -0.834000       15.9994           0
     17516 TIP3     1239     TIP3     H1       HT       0.417000       1.00800           0
     17517 TIP3     1239     TIP3     H2       HT       0.417000       1.00800           0
     17518 TIP3     1240     TIP3     OH2      OT      -0.834000       15.9994           0
     17519 TIP3     1240     TIP3     H1       HT       0.417000       1.00800           0
     17520 TIP3     1240     TIP3     H2       HT       0.417000       1.00800           0
     17521 TIP3     1241     TIP3     OH2      OT      -0.834000       15.9994           0
     17522 TIP3     1241     TIP3     H1       HT       0.417000       1.00800           0
     17523 TIP3     1241     TIP3     H2       HT       0.417000       1.00800           0
     17524 TIP3     1242     TIP3     OH2      OT      -0.834000       15.9994           0
     17525 TIP3     1242     TIP3     H1       HT       0.417000       1.00800           0
     17526 TIP3     1242     TIP3     H2       HT       0.417000       1.00800           0
     17527 TIP3     1243     TIP3     OH2      OT      -0.834000       15.9994           0
     17528 TIP3     1243     TIP3     H1       HT       0.417000       1.00800           0
     17529 TIP3     1243     TIP3     H2       HT       0.417000       1.00800           0
     17530 TIP3     1244     TIP3     OH2      OT      -0.834000       15.9994           0
     17531 TIP3     1244     TIP3     H1       HT       0.417000       1.00800           0
     17532 TIP3     1244     TIP3     H2       HT       0.417000       1.00800           0
     17533 TIP3     1245     TIP3     OH2      OT      -0.834000       15.9994           0
     17534 TIP3     1245     TIP3     H1       HT       0.417000       1.00800           0
     17535 TIP3     1245     TIP3     H2       HT       0.417000       1.00800           0
     17536 TIP3     1246     TIP3     OH2      OT      -0.834000       15.9994           0
     17537 TIP3     1246     TIP3     H1       HT       0.417000       1.00800           0
     17538 TIP3     1246     TIP3     H2       HT       0.417000       1.00800           0
     17539 TIP3     1247     TIP3     OH2      OT      -0.834000       15.9994           0
     17540 TIP3     1247     TIP3     H1       HT       0.417000       1.00800           0
     17541 TIP3     1247     TIP3     H2       HT       0.417000       1.00800           0
     17542 TIP3     1248     TIP3     OH2      OT      -0.834000       15.9994           0
     17543 TIP3     1248     TIP3     H1       HT       0.417000       1.00800           0
     17544 TIP3     1248     TIP3     H2       HT       0.417000       1.00800           0
     17545 TIP3     1249     TIP3     OH2      OT      -0.834000       15.9994           0
     17546 TIP3     1249     TIP3     H1       HT       0.417000       1.00800           0
     17547 TIP3     1249     TIP3     H2       HT       0.417000       1.00800           0
     17548 TIP3     1250     TIP3     OH2      OT      -0.834000       15.9994           0
     17549 TIP3     1250     TIP3     H1       HT       0.417000       1.00800           0
     17550 TIP3     1250     TIP3     H2       HT       0.417000       1.00800           0
     17551 TIP3     1251     TIP3     OH2      OT      -0.834000       15.9994           0
     17552 TIP3     1251     TIP3     H1       HT       0.417000       1.00800           0
     17553 TIP3     1251     TIP3     H2       HT       0.417000       1.00800           0
     17554 TIP3     1252     TIP3     OH2      OT      -0.834000       15.9994           0
     17555 TIP3     1252     TIP3     H1       HT       0.417000       1.00800           0
     17556 TIP3     1252     TIP3     H2       HT       0.417000       1.00800           0
     17557 TIP3     1253     TIP3     OH2      OT      -0.834000       15.9994           0
     17558 TIP3     1253     TIP3     H1       HT       0.417000       1.00800           0
     17559 TIP3     1253     TIP3     H2       HT       0.417000       1.00800           0
     17560 TIP3     1254     TIP3     OH2      OT      -0.834000       15.9994           0
     17561 TIP3     1254     TIP3     H1       HT       0.417000       1.00800           0
     17562 TIP3     1254     TIP3     H2       HT       0.417000       1.00800           0
     17563 TIP3     1255     TIP3     OH2      OT      -0.834000       15.9994           0
     17564 TIP3     1255     TIP3     H1       HT       0.417000       1.00800           0
     17565 TIP3     1255     TIP3     H2       HT       0.417000       1.00800           0
     17566 TIP3     1256     TIP3     OH2      OT      -0.834000       15.9994           0
     17567 TIP3     1256     TIP3     H1       HT       0.417000       1.00800           0
     17568 TIP3     1256     TIP3     H2       HT       0.417000       1.00800           0
     17569 TIP3     1257     TIP3     OH2      OT      -0.834000       15.9994           0
     17570 TIP3     1257     TIP3     H1       HT       0.417000       1.00800           0
     17571 TIP3     1257     TIP3     H2       HT       0.417000       1.00800           0
     17572 TIP3     1258     TIP3     OH2      OT      -0.834000       15.9994           0
     17573 TIP3     1258     TIP3     H1       HT       0.417000       1.00800           0
     17574 TIP3     1258     TIP3     H2       HT       0.417000       1.00800           0
     17575 TIP3     1259     TIP3     OH2      OT      -0.834000       15.9994           0
     17576 TIP3     1259     TIP3     H1       HT       0.417000       1.00800           0
     17577 TIP3     1259     TIP3     H2       HT       0.417000       1.00800           0
     17578 TIP3     1260     TIP3     OH2      OT      -0.834000       15.9994           0
     17579 TIP3     1260     TIP3     H1       HT       0.417000       1.00800           0
     17580 TIP3     1260     TIP3     H2       HT       0.417000       1.00800           0
     17581 TIP3     1261     TIP3     OH2      OT      -0.834000       15.9994           0
     17582 TIP3     1261     TIP3     H1       HT       0.417000       1.00800           0
     17583 TIP3     1261     TIP3     H2       HT       0.417000       1.00800           0
     17584 TIP3     1262     TIP3     OH2      OT      -0.834000       15.9994           0
     17585 TIP3     1262     TIP3     H1       HT       0.417000       1.00800           0
     17586 TIP3     1262     TIP3     H2       HT       0.417000       1.00800           0
     17587 TIP3     1263     TIP3     OH2      OT      -0.834000       15.9994           0
     17588 TIP3     1263     TIP3     H1       HT       0.417000       1.00800           0
     17589 TIP3     1263     TIP3     H2       HT       0.417000       1.00800           0
     17590 TIP3     1264     TIP3     OH2      OT      -0.834000       15.9994           0
     17591 TIP3     1264     TIP3     H1       HT       0.417000       1.00800           0
     17592 TIP3     1264     TIP3     H2       HT       0.417000       1.00800           0
     17593 TIP3     1265     TIP3     OH2      OT      -0.834000       15.9994           0
     17594 TIP3     1265     TIP3     H1       HT       0.417000       1.00800           0
     17595 TIP3     1265     TIP3     H2       HT       0.417000       1.00800           0
     17596 TIP3     1266     TIP3     OH2      OT      -0.834000       15.9994           0
     17597 TIP3     1266     TIP3     H1       HT       0.417000       1.00800           0
     17598 TIP3     1266     TIP3     H2       HT       0.417000       1.00800           0
     17599 TIP3     1267     TIP3     OH2      OT      -0.834000       15.9994           0
     17600 TIP3     1267     TIP3     H1       HT       0.417000       1.00800           0
     17601 TIP3     1267     TIP3     H2       HT       0.417000       1.00800           0
     17602 TIP3     1268     TIP3     OH2      OT      -0.834000       15.9994           0
     17603 TIP3     1268     TIP3     H1       HT       0.417000       1.00800           0
     17604 TIP3     1268     TIP3     H2       HT       0.417000       1.00800           0
     17605 TIP3     1269     TIP3     OH2      OT      -0.834000       15.9994           0
     17606 TIP3     1269     TIP3     H1       HT       0.417000       1.00800           0
     17607 TIP3     1269     TIP3     H2       HT       0.417000       1.00800           0
     17608 TIP3     1270     TIP3     OH2      OT      -0.834000       15.9994           0
     17609 TIP3     1270     TIP3     H1       HT       0.417000       1.00800           0
     17610 TIP3     1270     TIP3     H2       HT       0.417000       1.00800           0
     17611 TIP3     1271     TIP3     OH2      OT      -0.834000       15.9994           0
     17612 TIP3     1271     TIP3     H1       HT       0.417000       1.00800           0
     17613 TIP3     1271     TIP3     H2       HT       0.417000       1.00800           0
     17614 TIP3     1272     TIP3     OH2      OT      -0.834000       15.9994           0
     17615 TIP3     1272     TIP3     H1       HT       0.417000       1.00800           0
     17616 TIP3     1272     TIP3     H2       HT       0.417000       1.00800           0
     17617 TIP3     1273     TIP3     OH2      OT      -0.834000       15.9994           0
     17618 TIP3     1273     TIP3     H1       HT       0.417000       1.00800           0
     17619 TIP3     1273     TIP3     H2       HT       0.417000       1.00800           0
     17620 TIP3     1274     TIP3     OH2      OT      -0.834000       15.9994           0
     17621 TIP3     1274     TIP3     H1       HT       0.417000       1.00800           0
     17622 TIP3     1274     TIP3     H2       HT       0.417000       1.00800           0
     17623 TIP3     1275     TIP3     OH2      OT      -0.834000       15.9994           0
     17624 TIP3     1275     TIP3     H1       HT       0.417000       1.00800           0
     17625 TIP3     1275     TIP3     H2       HT       0.417000       1.00800           0
     17626 TIP3     1276     TIP3     OH2      OT      -0.834000       15.9994           0
     17627 TIP3     1276     TIP3     H1       HT       0.417000       1.00800           0
     17628 TIP3     1276     TIP3     H2       HT       0.417000       1.00800           0
     17629 TIP3     1277     TIP3     OH2      OT      -0.834000       15.9994           0
     17630 TIP3     1277     TIP3     H1       HT       0.417000       1.00800           0
     17631 TIP3     1277     TIP3     H2       HT       0.417000       1.00800           0
     17632 TIP3     1278     TIP3     OH2      OT      -0.834000       15.9994           0
     17633 TIP3     1278     TIP3     H1       HT       0.417000       1.00800           0
     17634 TIP3     1278     TIP3     H2       HT       0.417000       1.00800           0
     17635 TIP3     1279     TIP3     OH2      OT      -0.834000       15.9994           0
     17636 TIP3     1279     TIP3     H1       HT       0.417000       1.00800           0
     17637 TIP3     1279     TIP3     H2       HT       0.417000       1.00800           0
     17638 TIP3     1280     TIP3     OH2      OT      -0.834000       15.9994           0
     17639 TIP3     1280     TIP3     H1       HT       0.417000       1.00800           0
     17640 TIP3     1280     TIP3     H2       HT       0.417000       1.00800           0
     17641 TIP3     1281     TIP3     OH2      OT      -0.834000       15.9994           0
     17642 TIP3     1281     TIP3     H1       HT       0.417000       1.00800           0
     17643 TIP3     1281     TIP3     H2       HT       0.417000       1.00800           0
     17644 TIP3     1282     TIP3     OH2      OT      -0.834000       15.9994           0
     17645 TIP3     1282     TIP3     H1       HT       0.417000       1.00800           0
     17646 TIP3     1282     TIP3     H2       HT       0.417000       1.00800           0
     17647 TIP3     1283     TIP3     OH2      OT      -0.834000       15.9994           0
     17648 TIP3     1283     TIP3     H1       HT       0.417000       1.00800           0
     17649 TIP3     1283     TIP3     H2       HT       0.417000       1.00800           0
     17650 TIP3     1284     TIP3     OH2      OT      -0.834000       15.9994           0
     17651 TIP3     1284     TIP3     H1       HT       0.417000       1.00800           0
     17652 TIP3     1284     TIP3     H2       HT       0.417000       1.00800           0
     17653 TIP3     1285     TIP3     OH2      OT      -0.834000       15.9994           0
     17654 TIP3     1285     TIP3     H1       HT       0.417000       1.00800           0
     17655 TIP3     1285     TIP3     H2       HT       0.417000       1.00800           0
     17656 TIP3     1286     TIP3     OH2      OT      -0.834000       15.9994           0
     17657 TIP3     1286     TIP3     H1       HT       0.417000       1.00800           0
     17658 TIP3     1286     TIP3     H2       HT       0.417000       1.00800           0
     17659 TIP3     1287     TIP3     OH2      OT      -0.834000       15.9994           0
     17660 TIP3     1287     TIP3     H1       HT       0.417000       1.00800           0
     17661 TIP3     1287     TIP3     H2       HT       0.417000       1.00800           0
     17662 TIP3     1288     TIP3     OH2      OT      -0.834000       15.9994           0
     17663 TIP3     1288     TIP3     H1       HT       0.417000       1.00800           0
     17664 TIP3     1288     TIP3     H2       HT       0.417000       1.00800           0
     17665 TIP3     1289     TIP3     OH2      OT      -0.834000       15.9994           0
     17666 TIP3     1289     TIP3     H1       HT       0.417000       1.00800           0
     17667 TIP3     1289     TIP3     H2       HT       0.417000       1.00800           0
     17668 TIP3     1290     TIP3     OH2      OT      -0.834000       15.9994           0
     17669 TIP3     1290     TIP3     H1       HT       0.417000       1.00800           0
     17670 TIP3     1290     TIP3     H2       HT       0.417000       1.00800           0
     17671 TIP3     1291     TIP3     OH2      OT      -0.834000       15.9994           0
     17672 TIP3     1291     TIP3     H1       HT       0.417000       1.00800           0
     17673 TIP3     1291     TIP3     H2       HT       0.417000       1.00800           0
     17674 TIP3     1292     TIP3     OH2      OT      -0.834000       15.9994           0
     17675 TIP3     1292     TIP3     H1       HT       0.417000       1.00800           0
     17676 TIP3     1292     TIP3     H2       HT       0.417000       1.00800           0
     17677 TIP3     1293     TIP3     OH2      OT      -0.834000       15.9994           0
     17678 TIP3     1293     TIP3     H1       HT       0.417000       1.00800           0
     17679 TIP3     1293     TIP3     H2       HT       0.417000       1.00800           0
     17680 TIP3     1294     TIP3     OH2      OT      -0.834000       15.9994           0
     17681 TIP3     1294     TIP3     H1       HT       0.417000       1.00800           0
     17682 TIP3     1294     TIP3     H2       HT       0.417000       1.00800           0
     17683 TIP3     1295     TIP3     OH2      OT      -0.834000       15.9994           0
     17684 TIP3     1295     TIP3     H1       HT       0.417000       1.00800           0
     17685 TIP3     1295     TIP3     H2       HT       0.417000       1.00800           0
     17686 TIP3     1296     TIP3     OH2      OT      -0.834000       15.9994           0
     17687 TIP3     1296     TIP3     H1       HT       0.417000       1.00800           0
     17688 TIP3     1296     TIP3     H2       HT       0.417000       1.00800           0
     17689 TIP3     1297     TIP3     OH2      OT      -0.834000       15.9994           0
     17690 TIP3     1297     TIP3     H1       HT       0.417000       1.00800           0
     17691 TIP3     1297     TIP3     H2       HT       0.417000       1.00800           0
     17692 TIP3     1298     TIP3     OH2      OT      -0.834000       15.9994           0
     17693 TIP3     1298     TIP3     H1       HT       0.417000       1.00800           0
     17694 TIP3     1298     TIP3     H2       HT       0.417000       1.00800           0
     17695 TIP3     1299     TIP3     OH2      OT      -0.834000       15.9994           0
     17696 TIP3     1299     TIP3     H1       HT       0.417000       1.00800           0
     17697 TIP3     1299     TIP3     H2       HT       0.417000       1.00800           0
     17698 TIP3     1300     TIP3     OH2      OT      -0.834000       15.9994           0
     17699 TIP3     1300     TIP3     H1       HT       0.417000       1.00800           0
     17700 TIP3     1300     TIP3     H2       HT       0.417000       1.00800           0
     17701 TIP3     1301     TIP3     OH2      OT      -0.834000       15.9994           0
     17702 TIP3     1301     TIP3     H1       HT       0.417000       1.00800           0
     17703 TIP3     1301     TIP3     H2       HT       0.417000       1.00800           0
     17704 TIP3     1302     TIP3     OH2      OT      -0.834000       15.9994           0
     17705 TIP3     1302     TIP3     H1       HT       0.417000       1.00800           0
     17706 TIP3     1302     TIP3     H2       HT       0.417000       1.00800           0
     17707 TIP3     1303     TIP3     OH2      OT      -0.834000       15.9994           0
     17708 TIP3     1303     TIP3     H1       HT       0.417000       1.00800           0
     17709 TIP3     1303     TIP3     H2       HT       0.417000       1.00800           0
     17710 TIP3     1304     TIP3     OH2      OT      -0.834000       15.9994           0
     17711 TIP3     1304     TIP3     H1       HT       0.417000       1.00800           0
     17712 TIP3     1304     TIP3     H2       HT       0.417000       1.00800           0
     17713 TIP3     1305     TIP3     OH2      OT      -0.834000       15.9994           0
     17714 TIP3     1305     TIP3     H1       HT       0.417000       1.00800           0
     17715 TIP3     1305     TIP3     H2       HT       0.417000       1.00800           0
     17716 TIP3     1306     TIP3     OH2      OT      -0.834000       15.9994           0
     17717 TIP3     1306     TIP3     H1       HT       0.417000       1.00800           0
     17718 TIP3     1306     TIP3     H2       HT       0.417000       1.00800           0
     17719 TIP3     1307     TIP3     OH2      OT      -0.834000       15.9994           0
     17720 TIP3     1307     TIP3     H1       HT       0.417000       1.00800           0
     17721 TIP3     1307     TIP3     H2       HT       0.417000       1.00800           0
     17722 TIP3     1308     TIP3     OH2      OT      -0.834000       15.9994           0
     17723 TIP3     1308     TIP3     H1       HT       0.417000       1.00800           0
     17724 TIP3     1308     TIP3     H2       HT       0.417000       1.00800           0
     17725 TIP3     1309     TIP3     OH2      OT      -0.834000       15.9994           0
     17726 TIP3     1309     TIP3     H1       HT       0.417000       1.00800           0
     17727 TIP3     1309     TIP3     H2       HT       0.417000       1.00800           0
     17728 TIP3     1310     TIP3     OH2      OT      -0.834000       15.9994           0
     17729 TIP3     1310     TIP3     H1       HT       0.417000       1.00800           0
     17730 TIP3     1310     TIP3     H2       HT       0.417000       1.00800           0
     17731 TIP3     1311     TIP3     OH2      OT      -0.834000       15.9994           0
     17732 TIP3     1311     TIP3     H1       HT       0.417000       1.00800           0
     17733 TIP3     1311     TIP3     H2       HT       0.417000       1.00800           0
     17734 TIP3     1312     TIP3     OH2      OT      -0.834000       15.9994           0
     17735 TIP3     1312     TIP3     H1       HT       0.417000       1.00800           0
     17736 TIP3     1312     TIP3     H2       HT       0.417000       1.00800           0
     17737 TIP3     1313     TIP3     OH2      OT      -0.834000       15.9994           0
     17738 TIP3     1313     TIP3     H1       HT       0.417000       1.00800           0
     17739 TIP3     1313     TIP3     H2       HT       0.417000       1.00800           0
     17740 TIP3     1314     TIP3     OH2      OT      -0.834000       15.9994           0
     17741 TIP3     1314     TIP3     H1       HT       0.417000       1.00800           0
     17742 TIP3     1314     TIP3     H2       HT       0.417000       1.00800           0
     17743 TIP3     1315     TIP3     OH2      OT      -0.834000       15.9994           0
     17744 TIP3     1315     TIP3     H1       HT       0.417000       1.00800           0
     17745 TIP3     1315     TIP3     H2       HT       0.417000       1.00800           0
     17746 TIP3     1316     TIP3     OH2      OT      -0.834000       15.9994           0
     17747 TIP3     1316     TIP3     H1       HT       0.417000       1.00800           0
     17748 TIP3     1316     TIP3     H2       HT       0.417000       1.00800           0
     17749 TIP3     1317     TIP3     OH2      OT      -0.834000       15.9994           0
     17750 TIP3     1317     TIP3     H1       HT       0.417000       1.00800           0
     17751 TIP3     1317     TIP3     H2       HT       0.417000       1.00800           0
     17752 TIP3     1318     TIP3     OH2      OT      -0.834000       15.9994           0
     17753 TIP3     1318     TIP3     H1       HT       0.417000       1.00800           0
     17754 TIP3     1318     TIP3     H2       HT       0.417000       1.00800           0
     17755 TIP3     1319     TIP3     OH2      OT      -0.834000       15.9994           0
     17756 TIP3     1319     TIP3     H1       HT       0.417000       1.00800           0
     17757 TIP3     1319     TIP3     H2       HT       0.417000       1.00800           0
     17758 TIP3     1320     TIP3     OH2      OT      -0.834000       15.9994           0
     17759 TIP3     1320     TIP3     H1       HT       0.417000       1.00800           0
     17760 TIP3     1320     TIP3     H2       HT       0.417000       1.00800           0
     17761 TIP3     1321     TIP3     OH2      OT      -0.834000       15.9994           0
     17762 TIP3     1321     TIP3     H1       HT       0.417000       1.00800           0
     17763 TIP3     1321     TIP3     H2       HT       0.417000       1.00800           0
     17764 TIP3     1322     TIP3     OH2      OT      -0.834000       15.9994           0
     17765 TIP3     1322     TIP3     H1       HT       0.417000       1.00800           0
     17766 TIP3     1322     TIP3     H2       HT       0.417000       1.00800           0
     17767 TIP3     1323     TIP3     OH2      OT      -0.834000       15.9994           0
     17768 TIP3     1323     TIP3     H1       HT       0.417000       1.00800           0
     17769 TIP3     1323     TIP3     H2       HT       0.417000       1.00800           0
     17770 TIP3     1324     TIP3     OH2      OT      -0.834000       15.9994           0
     17771 TIP3     1324     TIP3     H1       HT       0.417000       1.00800           0
     17772 TIP3     1324     TIP3     H2       HT       0.417000       1.00800           0
     17773 TIP3     1325     TIP3     OH2      OT      -0.834000       15.9994           0
     17774 TIP3     1325     TIP3     H1       HT       0.417000       1.00800           0
     17775 TIP3     1325     TIP3     H2       HT       0.417000       1.00800           0
     17776 TIP3     1326     TIP3     OH2      OT      -0.834000       15.9994           0
     17777 TIP3     1326     TIP3     H1       HT       0.417000       1.00800           0
     17778 TIP3     1326     TIP3     H2       HT       0.417000       1.00800           0
     17779 TIP3     1327     TIP3     OH2      OT      -0.834000       15.9994           0
     17780 TIP3     1327     TIP3     H1       HT       0.417000       1.00800           0
     17781 TIP3     1327     TIP3     H2       HT       0.417000       1.00800           0
     17782 TIP3     1328     TIP3     OH2      OT      -0.834000       15.9994           0
     17783 TIP3     1328     TIP3     H1       HT       0.417000       1.00800           0
     17784 TIP3     1328     TIP3     H2       HT       0.417000       1.00800           0
     17785 TIP3     1329     TIP3     OH2      OT      -0.834000       15.9994           0
     17786 TIP3     1329     TIP3     H1       HT       0.417000       1.00800           0
     17787 TIP3     1329     TIP3     H2       HT       0.417000       1.00800           0
     17788 TIP3     1330     TIP3     OH2      OT      -0.834000       15.9994           0
     17789 TIP3     1330     TIP3     H1       HT       0.417000       1.00800           0
     17790 TIP3     1330     TIP3     H2       HT       0.417000       1.00800           0
     17791 TIP3     1331     TIP3     OH2      OT      -0.834000       15.9994           0
     17792 TIP3     1331     TIP3     H1       HT       0.417000       1.00800           0
     17793 TIP3     1331     TIP3     H2       HT       0.417000       1.00800           0
     17794 TIP3     1332     TIP3     OH2      OT      -0.834000       15.9994           0
     17795 TIP3     1332     TIP3     H1       HT       0.417000       1.00800           0
     17796 TIP3     1332     TIP3     H2       HT       0.417000       1.00800           0
     17797 TIP3     1333     TIP3     OH2      OT      -0.834000       15.9994           0
     17798 TIP3     1333     TIP3     H1       HT       0.417000       1.00800           0
     17799 TIP3     1333     TIP3     H2       HT       0.417000       1.00800           0
     17800 TIP3     1334     TIP3     OH2      OT      -0.834000       15.9994           0
     17801 TIP3     1334     TIP3     H1       HT       0.417000       1.00800           0
     17802 TIP3     1334     TIP3     H2       HT       0.417000       1.00800           0
     17803 TIP3     1335     TIP3     OH2      OT      -0.834000       15.9994           0
     17804 TIP3     1335     TIP3     H1       HT       0.417000       1.00800           0
     17805 TIP3     1335     TIP3     H2       HT       0.417000       1.00800           0
     17806 TIP3     1336     TIP3     OH2      OT      -0.834000       15.9994           0
     17807 TIP3     1336     TIP3     H1       HT       0.417000       1.00800           0
     17808 TIP3     1336     TIP3     H2       HT       0.417000       1.00800           0
     17809 TIP3     1337     TIP3     OH2      OT      -0.834000       15.9994           0
     17810 TIP3     1337     TIP3     H1       HT       0.417000       1.00800           0
     17811 TIP3     1337     TIP3     H2       HT       0.417000       1.00800           0
     17812 TIP3     1338     TIP3     OH2      OT      -0.834000       15.9994           0
     17813 TIP3     1338     TIP3     H1       HT       0.417000       1.00800           0
     17814 TIP3     1338     TIP3     H2       HT       0.417000       1.00800           0
     17815 TIP3     1339     TIP3     OH2      OT      -0.834000       15.9994           0
     17816 TIP3     1339     TIP3     H1       HT       0.417000       1.00800           0
     17817 TIP3     1339     TIP3     H2       HT       0.417000       1.00800           0
     17818 TIP3     1340     TIP3     OH2      OT      -0.834000       15.9994           0
     17819 TIP3     1340     TIP3     H1       HT       0.417000       1.00800           0
     17820 TIP3     1340     TIP3     H2       HT       0.417000       1.00800           0
     17821 TIP3     1341     TIP3     OH2      OT      -0.834000       15.9994           0
     17822 TIP3     1341     TIP3     H1       HT       0.417000       1.00800           0
     17823 TIP3     1341     TIP3     H2       HT       0.417000       1.00800           0
     17824 TIP3     1342     TIP3     OH2      OT      -0.834000       15.9994           0
     17825 TIP3     1342     TIP3     H1       HT       0.417000       1.00800           0
     17826 TIP3     1342     TIP3     H2       HT       0.417000       1.00800           0
     17827 TIP3     1343     TIP3     OH2      OT      -0.834000       15.9994           0
     17828 TIP3     1343     TIP3     H1       HT       0.417000       1.00800           0
     17829 TIP3     1343     TIP3     H2       HT       0.417000       1.00800           0
     17830 TIP3     1344     TIP3     OH2      OT      -0.834000       15.9994           0
     17831 TIP3     1344     TIP3     H1       HT       0.417000       1.00800           0
     17832 TIP3     1344     TIP3     H2       HT       0.417000       1.00800           0
     17833 TIP3     1345     TIP3     OH2      OT      -0.834000       15.9994           0
     17834 TIP3     1345     TIP3     H1       HT       0.417000       1.00800           0
     17835 TIP3     1345     TIP3     H2       HT       0.417000       1.00800           0
     17836 TIP3     1346     TIP3     OH2      OT      -0.834000       15.9994           0
     17837 TIP3     1346     TIP3     H1       HT       0.417000       1.00800           0
     17838 TIP3     1346     TIP3     H2       HT       0.417000       1.00800           0
     17839 TIP3     1347     TIP3     OH2      OT      -0.834000       15.9994           0
     17840 TIP3     1347     TIP3     H1       HT       0.417000       1.00800           0
     17841 TIP3     1347     TIP3     H2       HT       0.417000       1.00800           0
     17842 TIP3     1348     TIP3     OH2      OT      -0.834000       15.9994           0
     17843 TIP3     1348     TIP3     H1       HT       0.417000       1.00800           0
     17844 TIP3     1348     TIP3     H2       HT       0.417000       1.00800           0
     17845 TIP3     1349     TIP3     OH2      OT      -0.834000       15.9994           0
     17846 TIP3     1349     TIP3     H1       HT       0.417000       1.00800           0
     17847 TIP3     1349     TIP3     H2       HT       0.417000       1.00800           0
     17848 TIP3     1350     TIP3     OH2      OT      -0.834000       15.9994           0
     17849 TIP3     1350     TIP3     H1       HT       0.417000       1.00800           0
     17850 TIP3     1350     TIP3     H2       HT       0.417000       1.00800           0
     17851 TIP3     1351     TIP3     OH2      OT      -0.834000       15.9994           0
     17852 TIP3     1351     TIP3     H1       HT       0.417000       1.00800           0
     17853 TIP3     1351     TIP3     H2       HT       0.417000       1.00800           0
     17854 TIP3     1352     TIP3     OH2      OT      -0.834000       15.9994           0
     17855 TIP3     1352     TIP3     H1       HT       0.417000       1.00800           0
     17856 TIP3     1352     TIP3     H2       HT       0.417000       1.00800           0
     17857 TIP3     1353     TIP3     OH2      OT      -0.834000       15.9994           0
     17858 TIP3     1353     TIP3     H1       HT       0.417000       1.00800           0
     17859 TIP3     1353     TIP3     H2       HT       0.417000       1.00800           0
     17860 TIP3     1354     TIP3     OH2      OT      -0.834000       15.9994           0
     17861 TIP3     1354     TIP3     H1       HT       0.417000       1.00800           0
     17862 TIP3     1354     TIP3     H2       HT       0.417000       1.00800           0
     17863 TIP3     1355     TIP3     OH2      OT      -0.834000       15.9994           0
     17864 TIP3     1355     TIP3     H1       HT       0.417000       1.00800           0
     17865 TIP3     1355     TIP3     H2       HT       0.417000       1.00800           0
     17866 TIP3     1356     TIP3     OH2      OT      -0.834000       15.9994           0
     17867 TIP3     1356     TIP3     H1       HT       0.417000       1.00800           0
     17868 TIP3     1356     TIP3     H2       HT       0.417000       1.00800           0
     17869 TIP3     1357     TIP3     OH2      OT      -0.834000       15.9994           0
     17870 TIP3     1357     TIP3     H1       HT       0.417000       1.00800           0
     17871 TIP3     1357     TIP3     H2       HT       0.417000       1.00800           0
     17872 TIP3     1358     TIP3     OH2      OT      -0.834000       15.9994           0
     17873 TIP3     1358     TIP3     H1       HT       0.417000       1.00800           0
     17874 TIP3     1358     TIP3     H2       HT       0.417000       1.00800           0
     17875 TIP3     1359     TIP3     OH2      OT      -0.834000       15.9994           0
     17876 TIP3     1359     TIP3     H1       HT       0.417000       1.00800           0
     17877 TIP3     1359     TIP3     H2       HT       0.417000       1.00800           0
     17878 TIP3     1360     TIP3     OH2      OT      -0.834000       15.9994           0
     17879 TIP3     1360     TIP3     H1       HT       0.417000       1.00800           0
     17880 TIP3     1360     TIP3     H2       HT       0.417000       1.00800           0
     17881 TIP3     1361     TIP3     OH2      OT      -0.834000       15.9994           0
     17882 TIP3     1361     TIP3     H1       HT       0.417000       1.00800           0
     17883 TIP3     1361     TIP3     H2       HT       0.417000       1.00800           0
     17884 TIP3     1362     TIP3     OH2      OT      -0.834000       15.9994           0
     17885 TIP3     1362     TIP3     H1       HT       0.417000       1.00800           0
     17886 TIP3     1362     TIP3     H2       HT       0.417000       1.00800           0
     17887 TIP3     1363     TIP3     OH2      OT      -0.834000       15.9994           0
     17888 TIP3     1363     TIP3     H1       HT       0.417000       1.00800           0
     17889 TIP3     1363     TIP3     H2       HT       0.417000       1.00800           0
     17890 TIP3     1364     TIP3     OH2      OT      -0.834000       15.9994           0
     17891 TIP3     1364     TIP3     H1       HT       0.417000       1.00800           0
     17892 TIP3     1364     TIP3     H2       HT       0.417000       1.00800           0
     17893 TIP3     1365     TIP3     OH2      OT      -0.834000       15.9994           0
     17894 TIP3     1365     TIP3     H1       HT       0.417000       1.00800           0
     17895 TIP3     1365     TIP3     H2       HT       0.417000       1.00800           0
     17896 TIP3     1366     TIP3     OH2      OT      -0.834000       15.9994           0
     17897 TIP3     1366     TIP3     H1       HT       0.417000       1.00800           0
     17898 TIP3     1366     TIP3     H2       HT       0.417000       1.00800           0
     17899 TIP3     1367     TIP3     OH2      OT      -0.834000       15.9994           0
     17900 TIP3     1367     TIP3     H1       HT       0.417000       1.00800           0
     17901 TIP3     1367     TIP3     H2       HT       0.417000       1.00800           0
     17902 TIP3     1368     TIP3     OH2      OT      -0.834000       15.9994           0
     17903 TIP3     1368     TIP3     H1       HT       0.417000       1.00800           0
     17904 TIP3     1368     TIP3     H2       HT       0.417000       1.00800           0
     17905 TIP3     1369     TIP3     OH2      OT      -0.834000       15.9994           0
     17906 TIP3     1369     TIP3     H1       HT       0.417000       1.00800           0
     17907 TIP3     1369     TIP3     H2       HT       0.417000       1.00800           0
     17908 TIP3     1370     TIP3     OH2      OT      -0.834000       15.9994           0
     17909 TIP3     1370     TIP3     H1       HT       0.417000       1.00800           0
     17910 TIP3     1370     TIP3     H2       HT       0.417000       1.00800           0
     17911 TIP3     1371     TIP3     OH2      OT      -0.834000       15.9994           0
     17912 TIP3     1371     TIP3     H1       HT       0.417000       1.00800           0
     17913 TIP3     1371     TIP3     H2       HT       0.417000       1.00800           0
     17914 TIP3     1372     TIP3     OH2      OT      -0.834000       15.9994           0
     17915 TIP3     1372     TIP3     H1       HT       0.417000       1.00800           0
     17916 TIP3     1372     TIP3     H2       HT       0.417000       1.00800           0
     17917 TIP3     1373     TIP3     OH2      OT      -0.834000       15.9994           0
     17918 TIP3     1373     TIP3     H1       HT       0.417000       1.00800           0
     17919 TIP3     1373     TIP3     H2       HT       0.417000       1.00800           0
     17920 TIP3     1374     TIP3     OH2      OT      -0.834000       15.9994           0
     17921 TIP3     1374     TIP3     H1       HT       0.417000       1.00800           0
     17922 TIP3     1374     TIP3     H2       HT       0.417000       1.00800           0
     17923 TIP3     1375     TIP3     OH2      OT      -0.834000       15.9994           0
     17924 TIP3     1375     TIP3     H1       HT       0.417000       1.00800           0
     17925 TIP3     1375     TIP3     H2       HT       0.417000       1.00800           0
     17926 TIP3     1376     TIP3     OH2      OT      -0.834000       15.9994           0
     17927 TIP3     1376     TIP3     H1       HT       0.417000       1.00800           0
     17928 TIP3     1376     TIP3     H2       HT       0.417000       1.00800           0
     17929 TIP3     1377     TIP3     OH2      OT      -0.834000       15.9994           0
     17930 TIP3     1377     TIP3     H1       HT       0.417000       1.00800           0
     17931 TIP3     1377     TIP3     H2       HT       0.417000       1.00800           0
     17932 TIP3     1378     TIP3     OH2      OT      -0.834000       15.9994           0
     17933 TIP3     1378     TIP3     H1       HT       0.417000       1.00800           0
     17934 TIP3     1378     TIP3     H2       HT       0.417000       1.00800           0
     17935 TIP3     1379     TIP3     OH2      OT      -0.834000       15.9994           0
     17936 TIP3     1379     TIP3     H1       HT       0.417000       1.00800           0
     17937 TIP3     1379     TIP3     H2       HT       0.417000       1.00800           0
     17938 TIP3     1380     TIP3     OH2      OT      -0.834000       15.9994           0
     17939 TIP3     1380     TIP3     H1       HT       0.417000       1.00800           0
     17940 TIP3     1380     TIP3     H2       HT       0.417000       1.00800           0
     17941 TIP3     1381     TIP3     OH2      OT      -0.834000       15.9994           0
     17942 TIP3     1381     TIP3     H1       HT       0.417000       1.00800           0
     17943 TIP3     1381     TIP3     H2       HT       0.417000       1.00800           0
     17944 TIP3     1382     TIP3     OH2      OT      -0.834000       15.9994           0
     17945 TIP3     1382     TIP3     H1       HT       0.417000       1.00800           0
     17946 TIP3     1382     TIP3     H2       HT       0.417000       1.00800           0
     17947 TIP3     1383     TIP3     OH2      OT      -0.834000       15.9994           0
     17948 TIP3     1383     TIP3     H1       HT       0.417000       1.00800           0
     17949 TIP3     1383     TIP3     H2       HT       0.417000       1.00800           0
     17950 TIP3     1384     TIP3     OH2      OT      -0.834000       15.9994           0
     17951 TIP3     1384     TIP3     H1       HT       0.417000       1.00800           0
     17952 TIP3     1384     TIP3     H2       HT       0.417000       1.00800           0
     17953 TIP3     1385     TIP3     OH2      OT      -0.834000       15.9994           0
     17954 TIP3     1385     TIP3     H1       HT       0.417000       1.00800           0
     17955 TIP3     1385     TIP3     H2       HT       0.417000       1.00800           0
     17956 TIP3     1386     TIP3     OH2      OT      -0.834000       15.9994           0
     17957 TIP3     1386     TIP3     H1       HT       0.417000       1.00800           0
     17958 TIP3     1386     TIP3     H2       HT       0.417000       1.00800           0
     17959 TIP3     1387     TIP3     OH2      OT      -0.834000       15.9994           0
     17960 TIP3     1387     TIP3     H1       HT       0.417000       1.00800           0
     17961 TIP3     1387     TIP3     H2       HT       0.417000       1.00800           0
     17962 TIP3     1388     TIP3     OH2      OT      -0.834000       15.9994           0
     17963 TIP3     1388     TIP3     H1       HT       0.417000       1.00800           0
     17964 TIP3     1388     TIP3     H2       HT       0.417000       1.00800           0
     17965 TIP3     1389     TIP3     OH2      OT      -0.834000       15.9994           0
     17966 TIP3     1389     TIP3     H1       HT       0.417000       1.00800           0
     17967 TIP3     1389     TIP3     H2       HT       0.417000       1.00800           0
     17968 TIP3     1390     TIP3     OH2      OT      -0.834000       15.9994           0
     17969 TIP3     1390     TIP3     H1       HT       0.417000       1.00800           0
     17970 TIP3     1390     TIP3     H2       HT       0.417000       1.00800           0
     17971 TIP3     1391     TIP3     OH2      OT      -0.834000       15.9994           0
     17972 TIP3     1391     TIP3     H1       HT       0.417000       1.00800           0
     17973 TIP3     1391     TIP3     H2       HT       0.417000       1.00800           0
     17974 TIP3     1392     TIP3     OH2      OT      -0.834000       15.9994           0
     17975 TIP3     1392     TIP3     H1       HT       0.417000       1.00800           0
     17976 TIP3     1392     TIP3     H2       HT       0.417000       1.00800           0
     17977 TIP3     1393     TIP3     OH2      OT      -0.834000       15.9994           0
     17978 TIP3     1393     TIP3     H1       HT       0.417000       1.00800           0
     17979 TIP3     1393     TIP3     H2       HT       0.417000       1.00800           0
     17980 TIP3     1394     TIP3     OH2      OT      -0.834000       15.9994           0
     17981 TIP3     1394     TIP3     H1       HT       0.417000       1.00800           0
     17982 TIP3     1394     TIP3     H2       HT       0.417000       1.00800           0
     17983 TIP3     1395     TIP3     OH2      OT      -0.834000       15.9994           0
     17984 TIP3     1395     TIP3     H1       HT       0.417000       1.00800           0
     17985 TIP3     1395     TIP3     H2       HT       0.417000       1.00800           0
     17986 TIP3     1396     TIP3     OH2      OT      -0.834000       15.9994           0
     17987 TIP3     1396     TIP3     H1       HT       0.417000       1.00800           0
     17988 TIP3     1396     TIP3     H2       HT       0.417000       1.00800           0
     17989 TIP3     1397     TIP3     OH2      OT      -0.834000       15.9994           0
     17990 TIP3     1397     TIP3     H1       HT       0.417000       1.00800           0
     17991 TIP3     1397     TIP3     H2       HT       0.417000       1.00800           0
     17992 TIP3     1398     TIP3     OH2      OT      -0.834000       15.9994           0
     17993 TIP3     1398     TIP3     H1       HT       0.417000       1.00800           0
     17994 TIP3     1398     TIP3     H2       HT       0.417000       1.00800           0
     17995 TIP3     1399     TIP3     OH2      OT      -0.834000       15.9994           0
     17996 TIP3     1399     TIP3     H1       HT       0.417000       1.00800           0
     17997 TIP3     1399     TIP3     H2       HT       0.417000       1.00800           0
     17998 TIP3     1400     TIP3     OH2      OT      -0.834000       15.9994           0
     17999 TIP3     1400     TIP3     H1       HT       0.417000       1.00800           0
     18000 TIP3     1400     TIP3     H2       HT       0.417000       1.00800           0
     18001 TIP3     1401     TIP3     OH2      OT      -0.834000       15.9994           0
     18002 TIP3     1401     TIP3     H1       HT       0.417000       1.00800           0
     18003 TIP3     1401     TIP3     H2       HT       0.417000       1.00800           0
     18004 TIP3     1402     TIP3     OH2      OT      -0.834000       15.9994           0
     18005 TIP3     1402     TIP3     H1       HT       0.417000       1.00800           0
     18006 TIP3     1402     TIP3     H2       HT       0.417000       1.00800           0
     18007 TIP3     1403     TIP3     OH2      OT      -0.834000       15.9994           0
     18008 TIP3     1403     TIP3     H1       HT       0.417000       1.00800           0
     18009 TIP3     1403     TIP3     H2       HT       0.417000       1.00800           0
     18010 TIP3     1404     TIP3     OH2      OT      -0.834000       15.9994           0
     18011 TIP3     1404     TIP3     H1       HT       0.417000       1.00800           0
     18012 TIP3     1404     TIP3     H2       HT       0.417000       1.00800           0
     18013 TIP3     1405     TIP3     OH2      OT      -0.834000       15.9994           0
     18014 TIP3     1405     TIP3     H1       HT       0.417000       1.00800           0
     18015 TIP3     1405     TIP3     H2       HT       0.417000       1.00800           0
     18016 TIP3     1406     TIP3     OH2      OT      -0.834000       15.9994           0
     18017 TIP3     1406     TIP3     H1       HT       0.417000       1.00800           0
     18018 TIP3     1406     TIP3     H2       HT       0.417000       1.00800           0
     18019 TIP3     1407     TIP3     OH2      OT      -0.834000       15.9994           0
     18020 TIP3     1407     TIP3     H1       HT       0.417000       1.00800           0
     18021 TIP3     1407     TIP3     H2       HT       0.417000       1.00800           0
     18022 TIP3     1408     TIP3     OH2      OT      -0.834000       15.9994           0
     18023 TIP3     1408     TIP3     H1       HT       0.417000       1.00800           0
     18024 TIP3     1408     TIP3     H2       HT       0.417000       1.00800           0
     18025 TIP3     1409     TIP3     OH2      OT      -0.834000       15.9994           0
     18026 TIP3     1409     TIP3     H1       HT       0.417000       1.00800           0
     18027 TIP3     1409     TIP3     H2       HT       0.417000       1.00800           0
     18028 TIP3     1410     TIP3     OH2      OT      -0.834000       15.9994           0
     18029 TIP3     1410     TIP3     H1       HT       0.417000       1.00800           0
     18030 TIP3     1410     TIP3     H2       HT       0.417000       1.00800           0
     18031 TIP3     1411     TIP3     OH2      OT      -0.834000       15.9994           0
     18032 TIP3     1411     TIP3     H1       HT       0.417000       1.00800           0
     18033 TIP3     1411     TIP3     H2       HT       0.417000       1.00800           0
     18034 TIP3     1412     TIP3     OH2      OT      -0.834000       15.9994           0
     18035 TIP3     1412     TIP3     H1       HT       0.417000       1.00800           0
     18036 TIP3     1412     TIP3     H2       HT       0.417000       1.00800           0
     18037 TIP3     1413     TIP3     OH2      OT      -0.834000       15.9994           0
     18038 TIP3     1413     TIP3     H1       HT       0.417000       1.00800           0
     18039 TIP3     1413     TIP3     H2       HT       0.417000       1.00800           0
     18040 TIP3     1414     TIP3     OH2      OT      -0.834000       15.9994           0
     18041 TIP3     1414     TIP3     H1       HT       0.417000       1.00800           0
     18042 TIP3     1414     TIP3     H2       HT       0.417000       1.00800           0
     18043 TIP3     1415     TIP3     OH2      OT      -0.834000       15.9994           0
     18044 TIP3     1415     TIP3     H1       HT       0.417000       1.00800           0
     18045 TIP3     1415     TIP3     H2       HT       0.417000       1.00800           0
     18046 TIP3     1416     TIP3     OH2      OT      -0.834000       15.9994           0
     18047 TIP3     1416     TIP3     H1       HT       0.417000       1.00800           0
     18048 TIP3     1416     TIP3     H2       HT       0.417000       1.00800           0
     18049 TIP3     1417     TIP3     OH2      OT      -0.834000       15.9994           0
     18050 TIP3     1417     TIP3     H1       HT       0.417000       1.00800           0
     18051 TIP3     1417     TIP3     H2       HT       0.417000       1.00800           0
     18052 TIP3     1418     TIP3     OH2      OT      -0.834000       15.9994           0
     18053 TIP3     1418     TIP3     H1       HT       0.417000       1.00800           0
     18054 TIP3     1418     TIP3     H2       HT       0.417000       1.00800           0
     18055 TIP3     1419     TIP3     OH2      OT      -0.834000       15.9994           0
     18056 TIP3     1419     TIP3     H1       HT       0.417000       1.00800           0
     18057 TIP3     1419     TIP3     H2       HT       0.417000       1.00800           0
     18058 TIP3     1420     TIP3     OH2      OT      -0.834000       15.9994           0
     18059 TIP3     1420     TIP3     H1       HT       0.417000       1.00800           0
     18060 TIP3     1420     TIP3     H2       HT       0.417000       1.00800           0
     18061 TIP3     1421     TIP3     OH2      OT      -0.834000       15.9994           0
     18062 TIP3     1421     TIP3     H1       HT       0.417000       1.00800           0
     18063 TIP3     1421     TIP3     H2       HT       0.417000       1.00800           0
     18064 TIP3     1422     TIP3     OH2      OT      -0.834000       15.9994           0
     18065 TIP3     1422     TIP3     H1       HT       0.417000       1.00800           0
     18066 TIP3     1422     TIP3     H2       HT       0.417000       1.00800           0
     18067 TIP3     1423     TIP3     OH2      OT      -0.834000       15.9994           0
     18068 TIP3     1423     TIP3     H1       HT       0.417000       1.00800           0
     18069 TIP3     1423     TIP3     H2       HT       0.417000       1.00800           0
     18070 TIP3     1424     TIP3     OH2      OT      -0.834000       15.9994           0
     18071 TIP3     1424     TIP3     H1       HT       0.417000       1.00800           0
     18072 TIP3     1424     TIP3     H2       HT       0.417000       1.00800           0
     18073 TIP3     1425     TIP3     OH2      OT      -0.834000       15.9994           0
     18074 TIP3     1425     TIP3     H1       HT       0.417000       1.00800           0
     18075 TIP3     1425     TIP3     H2       HT       0.417000       1.00800           0
     18076 TIP3     1426     TIP3     OH2      OT      -0.834000       15.9994           0
     18077 TIP3     1426     TIP3     H1       HT       0.417000       1.00800           0
     18078 TIP3     1426     TIP3     H2       HT       0.417000       1.00800           0
     18079 TIP3     1427     TIP3     OH2      OT      -0.834000       15.9994           0
     18080 TIP3     1427     TIP3     H1       HT       0.417000       1.00800           0
     18081 TIP3     1427     TIP3     H2       HT       0.417000       1.00800           0
     18082 TIP3     1428     TIP3     OH2      OT      -0.834000       15.9994           0
     18083 TIP3     1428     TIP3     H1       HT       0.417000       1.00800           0
     18084 TIP3     1428     TIP3     H2       HT       0.417000       1.00800           0
     18085 TIP3     1429     TIP3     OH2      OT      -0.834000       15.9994           0
     18086 TIP3     1429     TIP3     H1       HT       0.417000       1.00800           0
     18087 TIP3     1429     TIP3     H2       HT       0.417000       1.00800           0
     18088 TIP3     1430     TIP3     OH2      OT      -0.834000       15.9994           0
     18089 TIP3     1430     TIP3     H1       HT       0.417000       1.00800           0
     18090 TIP3     1430     TIP3     H2       HT       0.417000       1.00800           0
     18091 TIP3     1431     TIP3     OH2      OT      -0.834000       15.9994           0
     18092 TIP3     1431     TIP3     H1       HT       0.417000       1.00800           0
     18093 TIP3     1431     TIP3     H2       HT       0.417000       1.00800           0
     18094 TIP3     1432     TIP3     OH2      OT      -0.834000       15.9994           0
     18095 TIP3     1432     TIP3     H1       HT       0.417000       1.00800           0
     18096 TIP3     1432     TIP3     H2       HT       0.417000       1.00800           0
     18097 TIP3     1433     TIP3     OH2      OT      -0.834000       15.9994           0
     18098 TIP3     1433     TIP3     H1       HT       0.417000       1.00800           0
     18099 TIP3     1433     TIP3     H2       HT       0.417000       1.00800           0
     18100 TIP3     1434     TIP3     OH2      OT      -0.834000       15.9994           0
     18101 TIP3     1434     TIP3     H1       HT       0.417000       1.00800           0
     18102 TIP3     1434     TIP3     H2       HT       0.417000       1.00800           0
     18103 TIP3     1435     TIP3     OH2      OT      -0.834000       15.9994           0
     18104 TIP3     1435     TIP3     H1       HT       0.417000       1.00800           0
     18105 TIP3     1435     TIP3     H2       HT       0.417000       1.00800           0
     18106 TIP3     1436     TIP3     OH2      OT      -0.834000       15.9994           0
     18107 TIP3     1436     TIP3     H1       HT       0.417000       1.00800           0
     18108 TIP3     1436     TIP3     H2       HT       0.417000       1.00800           0
     18109 TIP3     1437     TIP3     OH2      OT      -0.834000       15.9994           0
     18110 TIP3     1437     TIP3     H1       HT       0.417000       1.00800           0
     18111 TIP3     1437     TIP3     H2       HT       0.417000       1.00800           0
     18112 TIP3     1438     TIP3     OH2      OT      -0.834000       15.9994           0
     18113 TIP3     1438     TIP3     H1       HT       0.417000       1.00800           0
     18114 TIP3     1438     TIP3     H2       HT       0.417000       1.00800           0
     18115 TIP3     1439     TIP3     OH2      OT      -0.834000       15.9994           0
     18116 TIP3     1439     TIP3     H1       HT       0.417000       1.00800           0
     18117 TIP3     1439     TIP3     H2       HT       0.417000       1.00800           0
     18118 TIP3     1440     TIP3     OH2      OT      -0.834000       15.9994           0
     18119 TIP3     1440     TIP3     H1       HT       0.417000       1.00800           0
     18120 TIP3     1440     TIP3     H2       HT       0.417000       1.00800           0
     18121 TIP3     1441     TIP3     OH2      OT      -0.834000       15.9994           0
     18122 TIP3     1441     TIP3     H1       HT       0.417000       1.00800           0
     18123 TIP3     1441     TIP3     H2       HT       0.417000       1.00800           0
     18124 TIP3     1442     TIP3     OH2      OT      -0.834000       15.9994           0
     18125 TIP3     1442     TIP3     H1       HT       0.417000       1.00800           0
     18126 TIP3     1442     TIP3     H2       HT       0.417000       1.00800           0
     18127 TIP3     1443     TIP3     OH2      OT      -0.834000       15.9994           0
     18128 TIP3     1443     TIP3     H1       HT       0.417000       1.00800           0
     18129 TIP3     1443     TIP3     H2       HT       0.417000       1.00800           0
     18130 TIP3     1444     TIP3     OH2      OT      -0.834000       15.9994           0
     18131 TIP3     1444     TIP3     H1       HT       0.417000       1.00800           0
     18132 TIP3     1444     TIP3     H2       HT       0.417000       1.00800           0
     18133 TIP3     1445     TIP3     OH2      OT      -0.834000       15.9994           0
     18134 TIP3     1445     TIP3     H1       HT       0.417000       1.00800           0
     18135 TIP3     1445     TIP3     H2       HT       0.417000       1.00800           0
     18136 TIP3     1446     TIP3     OH2      OT      -0.834000       15.9994           0
     18137 TIP3     1446     TIP3     H1       HT       0.417000       1.00800           0
     18138 TIP3     1446     TIP3     H2       HT       0.417000       1.00800           0
     18139 TIP3     1447     TIP3     OH2      OT      -0.834000       15.9994           0
     18140 TIP3     1447     TIP3     H1       HT       0.417000       1.00800           0
     18141 TIP3     1447     TIP3     H2       HT       0.417000       1.00800           0
     18142 TIP3     1448     TIP3     OH2      OT      -0.834000       15.9994           0
     18143 TIP3     1448     TIP3     H1       HT       0.417000       1.00800           0
     18144 TIP3     1448     TIP3     H2       HT       0.417000       1.00800           0
     18145 TIP3     1449     TIP3     OH2      OT      -0.834000       15.9994           0
     18146 TIP3     1449     TIP3     H1       HT       0.417000       1.00800           0
     18147 TIP3     1449     TIP3     H2       HT       0.417000       1.00800           0
     18148 TIP3     1450     TIP3     OH2      OT      -0.834000       15.9994           0
     18149 TIP3     1450     TIP3     H1       HT       0.417000       1.00800           0
     18150 TIP3     1450     TIP3     H2       HT       0.417000       1.00800           0
     18151 TIP3     1451     TIP3     OH2      OT      -0.834000       15.9994           0
     18152 TIP3     1451     TIP3     H1       HT       0.417000       1.00800           0
     18153 TIP3     1451     TIP3     H2       HT       0.417000       1.00800           0
     18154 TIP3     1452     TIP3     OH2      OT      -0.834000       15.9994           0
     18155 TIP3     1452     TIP3     H1       HT       0.417000       1.00800           0
     18156 TIP3     1452     TIP3     H2       HT       0.417000       1.00800           0
     18157 TIP3     1453     TIP3     OH2      OT      -0.834000       15.9994           0
     18158 TIP3     1453     TIP3     H1       HT       0.417000       1.00800           0
     18159 TIP3     1453     TIP3     H2       HT       0.417000       1.00800           0
     18160 TIP3     1454     TIP3     OH2      OT      -0.834000       15.9994           0
     18161 TIP3     1454     TIP3     H1       HT       0.417000       1.00800           0
     18162 TIP3     1454     TIP3     H2       HT       0.417000       1.00800           0
     18163 TIP3     1455     TIP3     OH2      OT      -0.834000       15.9994           0
     18164 TIP3     1455     TIP3     H1       HT       0.417000       1.00800           0
     18165 TIP3     1455     TIP3     H2       HT       0.417000       1.00800           0
     18166 TIP3     1456     TIP3     OH2      OT      -0.834000       15.9994           0
     18167 TIP3     1456     TIP3     H1       HT       0.417000       1.00800           0
     18168 TIP3     1456     TIP3     H2       HT       0.417000       1.00800           0
     18169 TIP3     1457     TIP3     OH2      OT      -0.834000       15.9994           0
     18170 TIP3     1457     TIP3     H1       HT       0.417000       1.00800           0
     18171 TIP3     1457     TIP3     H2       HT       0.417000       1.00800           0
     18172 TIP3     1458     TIP3     OH2      OT      -0.834000       15.9994           0
     18173 TIP3     1458     TIP3     H1       HT       0.417000       1.00800           0
     18174 TIP3     1458     TIP3     H2       HT       0.417000       1.00800           0
     18175 TIP3     1459     TIP3     OH2      OT      -0.834000       15.9994           0
     18176 TIP3     1459     TIP3     H1       HT       0.417000       1.00800           0
     18177 TIP3     1459     TIP3     H2       HT       0.417000       1.00800           0
     18178 TIP3     1460     TIP3     OH2      OT      -0.834000       15.9994           0
     18179 TIP3     1460     TIP3     H1       HT       0.417000       1.00800           0
     18180 TIP3     1460     TIP3     H2       HT       0.417000       1.00800           0
     18181 TIP3     1461     TIP3     OH2      OT      -0.834000       15.9994           0
     18182 TIP3     1461     TIP3     H1       HT       0.417000       1.00800           0
     18183 TIP3     1461     TIP3     H2       HT       0.417000       1.00800           0
     18184 TIP3     1462     TIP3     OH2      OT      -0.834000       15.9994           0
     18185 TIP3     1462     TIP3     H1       HT       0.417000       1.00800           0
     18186 TIP3     1462     TIP3     H2       HT       0.417000       1.00800           0
     18187 TIP3     1463     TIP3     OH2      OT      -0.834000       15.9994           0
     18188 TIP3     1463     TIP3     H1       HT       0.417000       1.00800           0
     18189 TIP3     1463     TIP3     H2       HT       0.417000       1.00800           0
     18190 TIP3     1464     TIP3     OH2      OT      -0.834000       15.9994           0
     18191 TIP3     1464     TIP3     H1       HT       0.417000       1.00800           0
     18192 TIP3     1464     TIP3     H2       HT       0.417000       1.00800           0
     18193 TIP3     1465     TIP3     OH2      OT      -0.834000       15.9994           0
     18194 TIP3     1465     TIP3     H1       HT       0.417000       1.00800           0
     18195 TIP3     1465     TIP3     H2       HT       0.417000       1.00800           0
     18196 TIP3     1466     TIP3     OH2      OT      -0.834000       15.9994           0
     18197 TIP3     1466     TIP3     H1       HT       0.417000       1.00800           0
     18198 TIP3     1466     TIP3     H2       HT       0.417000       1.00800           0
     18199 TIP3     1467     TIP3     OH2      OT      -0.834000       15.9994           0
     18200 TIP3     1467     TIP3     H1       HT       0.417000       1.00800           0
     18201 TIP3     1467     TIP3     H2       HT       0.417000       1.00800           0
     18202 TIP3     1468     TIP3     OH2      OT      -0.834000       15.9994           0
     18203 TIP3     1468     TIP3     H1       HT       0.417000       1.00800           0
     18204 TIP3     1468     TIP3     H2       HT       0.417000       1.00800           0
     18205 TIP3     1469     TIP3     OH2      OT      -0.834000       15.9994           0
     18206 TIP3     1469     TIP3     H1       HT       0.417000       1.00800           0
     18207 TIP3     1469     TIP3     H2       HT       0.417000       1.00800           0
     18208 TIP3     1470     TIP3     OH2      OT      -0.834000       15.9994           0
     18209 TIP3     1470     TIP3     H1       HT       0.417000       1.00800           0
     18210 TIP3     1470     TIP3     H2       HT       0.417000       1.00800           0
     18211 TIP3     1471     TIP3     OH2      OT      -0.834000       15.9994           0
     18212 TIP3     1471     TIP3     H1       HT       0.417000       1.00800           0
     18213 TIP3     1471     TIP3     H2       HT       0.417000       1.00800           0
     18214 TIP3     1472     TIP3     OH2      OT      -0.834000       15.9994           0
     18215 TIP3     1472     TIP3     H1       HT       0.417000       1.00800           0
     18216 TIP3     1472     TIP3     H2       HT       0.417000       1.00800           0
     18217 TIP3     1473     TIP3     OH2      OT      -0.834000       15.9994           0
     18218 TIP3     1473     TIP3     H1       HT       0.417000       1.00800           0
     18219 TIP3     1473     TIP3     H2       HT       0.417000       1.00800           0
     18220 TIP3     1474     TIP3     OH2      OT      -0.834000       15.9994           0
     18221 TIP3     1474     TIP3     H1       HT       0.417000       1.00800           0
     18222 TIP3     1474     TIP3     H2       HT       0.417000       1.00800           0
     18223 TIP3     1475     TIP3     OH2      OT      -0.834000       15.9994           0
     18224 TIP3     1475     TIP3     H1       HT       0.417000       1.00800           0
     18225 TIP3     1475     TIP3     H2       HT       0.417000       1.00800           0
     18226 TIP3     1476     TIP3     OH2      OT      -0.834000       15.9994           0
     18227 TIP3     1476     TIP3     H1       HT       0.417000       1.00800           0
     18228 TIP3     1476     TIP3     H2       HT       0.417000       1.00800           0
     18229 TIP3     1477     TIP3     OH2      OT      -0.834000       15.9994           0
     18230 TIP3     1477     TIP3     H1       HT       0.417000       1.00800           0
     18231 TIP3     1477     TIP3     H2       HT       0.417000       1.00800           0
     18232 TIP3     1478     TIP3     OH2      OT      -0.834000       15.9994           0
     18233 TIP3     1478     TIP3     H1       HT       0.417000       1.00800           0
     18234 TIP3     1478     TIP3     H2       HT       0.417000       1.00800           0
     18235 TIP3     1479     TIP3     OH2      OT      -0.834000       15.9994           0
     18236 TIP3     1479     TIP3     H1       HT       0.417000       1.00800           0
     18237 TIP3     1479     TIP3     H2       HT       0.417000       1.00800           0
     18238 TIP3     1480     TIP3     OH2      OT      -0.834000       15.9994           0
     18239 TIP3     1480     TIP3     H1       HT       0.417000       1.00800           0
     18240 TIP3     1480     TIP3     H2       HT       0.417000       1.00800           0
     18241 TIP3     1481     TIP3     OH2      OT      -0.834000       15.9994           0
     18242 TIP3     1481     TIP3     H1       HT       0.417000       1.00800           0
     18243 TIP3     1481     TIP3     H2       HT       0.417000       1.00800           0
     18244 TIP3     1482     TIP3     OH2      OT      -0.834000       15.9994           0
     18245 TIP3     1482     TIP3     H1       HT       0.417000       1.00800           0
     18246 TIP3     1482     TIP3     H2       HT       0.417000       1.00800           0
     18247 TIP3     1483     TIP3     OH2      OT      -0.834000       15.9994           0
     18248 TIP3     1483     TIP3     H1       HT       0.417000       1.00800           0
     18249 TIP3     1483     TIP3     H2       HT       0.417000       1.00800           0
     18250 TIP3     1484     TIP3     OH2      OT      -0.834000       15.9994           0
     18251 TIP3     1484     TIP3     H1       HT       0.417000       1.00800           0
     18252 TIP3     1484     TIP3     H2       HT       0.417000       1.00800           0
     18253 TIP3     1485     TIP3     OH2      OT      -0.834000       15.9994           0
     18254 TIP3     1485     TIP3     H1       HT       0.417000       1.00800           0
     18255 TIP3     1485     TIP3     H2       HT       0.417000       1.00800           0
     18256 TIP3     1486     TIP3     OH2      OT      -0.834000       15.9994           0
     18257 TIP3     1486     TIP3     H1       HT       0.417000       1.00800           0
     18258 TIP3     1486     TIP3     H2       HT       0.417000       1.00800           0
     18259 TIP3     1487     TIP3     OH2      OT      -0.834000       15.9994           0
     18260 TIP3     1487     TIP3     H1       HT       0.417000       1.00800           0
     18261 TIP3     1487     TIP3     H2       HT       0.417000       1.00800           0
     18262 TIP3     1488     TIP3     OH2      OT      -0.834000       15.9994           0
     18263 TIP3     1488     TIP3     H1       HT       0.417000       1.00800           0
     18264 TIP3     1488     TIP3     H2       HT       0.417000       1.00800           0
     18265 TIP3     1489     TIP3     OH2      OT      -0.834000       15.9994           0
     18266 TIP3     1489     TIP3     H1       HT       0.417000       1.00800           0
     18267 TIP3     1489     TIP3     H2       HT       0.417000       1.00800           0
     18268 TIP3     1490     TIP3     OH2      OT      -0.834000       15.9994           0
     18269 TIP3     1490     TIP3     H1       HT       0.417000       1.00800           0
     18270 TIP3     1490     TIP3     H2       HT       0.417000       1.00800           0
     18271 TIP3     1491     TIP3     OH2      OT      -0.834000       15.9994           0
     18272 TIP3     1491     TIP3     H1       HT       0.417000       1.00800           0
     18273 TIP3     1491     TIP3     H2       HT       0.417000       1.00800           0
     18274 TIP3     1492     TIP3     OH2      OT      -0.834000       15.9994           0
     18275 TIP3     1492     TIP3     H1       HT       0.417000       1.00800           0
     18276 TIP3     1492     TIP3     H2       HT       0.417000       1.00800           0
     18277 TIP3     1493     TIP3     OH2      OT      -0.834000       15.9994           0
     18278 TIP3     1493     TIP3     H1       HT       0.417000       1.00800           0
     18279 TIP3     1493     TIP3     H2       HT       0.417000       1.00800           0
     18280 TIP3     1494     TIP3     OH2      OT      -0.834000       15.9994           0
     18281 TIP3     1494     TIP3     H1       HT       0.417000       1.00800           0
     18282 TIP3     1494     TIP3     H2       HT       0.417000       1.00800           0
     18283 TIP3     1495     TIP3     OH2      OT      -0.834000       15.9994           0
     18284 TIP3     1495     TIP3     H1       HT       0.417000       1.00800           0
     18285 TIP3     1495     TIP3     H2       HT       0.417000       1.00800           0
     18286 TIP3     1496     TIP3     OH2      OT      -0.834000       15.9994           0
     18287 TIP3     1496     TIP3     H1       HT       0.417000       1.00800           0
     18288 TIP3     1496     TIP3     H2       HT       0.417000       1.00800           0
     18289 TIP3     1497     TIP3     OH2      OT      -0.834000       15.9994           0
     18290 TIP3     1497     TIP3     H1       HT       0.417000       1.00800           0
     18291 TIP3     1497     TIP3     H2       HT       0.417000       1.00800           0
     18292 TIP3     1498     TIP3     OH2      OT      -0.834000       15.9994           0
     18293 TIP3     1498     TIP3     H1       HT       0.417000       1.00800           0
     18294 TIP3     1498     TIP3     H2       HT       0.417000       1.00800           0
     18295 TIP3     1499     TIP3     OH2      OT      -0.834000       15.9994           0
     18296 TIP3     1499     TIP3     H1       HT       0.417000       1.00800           0
     18297 TIP3     1499     TIP3     H2       HT       0.417000       1.00800           0
     18298 TIP3     1500     TIP3     OH2      OT      -0.834000       15.9994           0
     18299 TIP3     1500     TIP3     H1       HT       0.417000       1.00800           0
     18300 TIP3     1500     TIP3     H2       HT       0.417000       1.00800           0
     18301 TIP3     1501     TIP3     OH2      OT      -0.834000       15.9994           0
     18302 TIP3     1501     TIP3     H1       HT       0.417000       1.00800           0
     18303 TIP3     1501     TIP3     H2       HT       0.417000       1.00800           0
     18304 TIP3     1502     TIP3     OH2      OT      -0.834000       15.9994           0
     18305 TIP3     1502     TIP3     H1       HT       0.417000       1.00800           0
     18306 TIP3     1502     TIP3     H2       HT       0.417000       1.00800           0
     18307 TIP3     1503     TIP3     OH2      OT      -0.834000       15.9994           0
     18308 TIP3     1503     TIP3     H1       HT       0.417000       1.00800           0
     18309 TIP3     1503     TIP3     H2       HT       0.417000       1.00800           0
     18310 TIP3     1504     TIP3     OH2      OT      -0.834000       15.9994           0
     18311 TIP3     1504     TIP3     H1       HT       0.417000       1.00800           0
     18312 TIP3     1504     TIP3     H2       HT       0.417000       1.00800           0
     18313 TIP3     1505     TIP3     OH2      OT      -0.834000       15.9994           0
     18314 TIP3     1505     TIP3     H1       HT       0.417000       1.00800           0
     18315 TIP3     1505     TIP3     H2       HT       0.417000       1.00800           0
     18316 TIP3     1506     TIP3     OH2      OT      -0.834000       15.9994           0
     18317 TIP3     1506     TIP3     H1       HT       0.417000       1.00800           0
     18318 TIP3     1506     TIP3     H2       HT       0.417000       1.00800           0
     18319 TIP3     1507     TIP3     OH2      OT      -0.834000       15.9994           0
     18320 TIP3     1507     TIP3     H1       HT       0.417000       1.00800           0
     18321 TIP3     1507     TIP3     H2       HT       0.417000       1.00800           0
     18322 TIP3     1508     TIP3     OH2      OT      -0.834000       15.9994           0
     18323 TIP3     1508     TIP3     H1       HT       0.417000       1.00800           0
     18324 TIP3     1508     TIP3     H2       HT       0.417000       1.00800           0
     18325 TIP3     1509     TIP3     OH2      OT      -0.834000       15.9994           0
     18326 TIP3     1509     TIP3     H1       HT       0.417000       1.00800           0
     18327 TIP3     1509     TIP3     H2       HT       0.417000       1.00800           0
     18328 TIP3     1510     TIP3     OH2      OT      -0.834000       15.9994           0
     18329 TIP3     1510     TIP3     H1       HT       0.417000       1.00800           0
     18330 TIP3     1510     TIP3     H2       HT       0.417000       1.00800           0
     18331 TIP3     1511     TIP3     OH2      OT      -0.834000       15.9994           0
     18332 TIP3     1511     TIP3     H1       HT       0.417000       1.00800           0
     18333 TIP3     1511     TIP3     H2       HT       0.417000       1.00800           0
     18334 TIP3     1512     TIP3     OH2      OT      -0.834000       15.9994           0
     18335 TIP3     1512     TIP3     H1       HT       0.417000       1.00800           0
     18336 TIP3     1512     TIP3     H2       HT       0.417000       1.00800           0
     18337 TIP3     1513     TIP3     OH2      OT      -0.834000       15.9994           0
     18338 TIP3     1513     TIP3     H1       HT       0.417000       1.00800           0
     18339 TIP3     1513     TIP3     H2       HT       0.417000       1.00800           0
     18340 TIP3     1514     TIP3     OH2      OT      -0.834000       15.9994           0
     18341 TIP3     1514     TIP3     H1       HT       0.417000       1.00800           0
     18342 TIP3     1514     TIP3     H2       HT       0.417000       1.00800           0
     18343 TIP3     1515     TIP3     OH2      OT      -0.834000       15.9994           0
     18344 TIP3     1515     TIP3     H1       HT       0.417000       1.00800           0
     18345 TIP3     1515     TIP3     H2       HT       0.417000       1.00800           0
     18346 TIP3     1516     TIP3     OH2      OT      -0.834000       15.9994           0
     18347 TIP3     1516     TIP3     H1       HT       0.417000       1.00800           0
     18348 TIP3     1516     TIP3     H2       HT       0.417000       1.00800           0
     18349 TIP3     1517     TIP3     OH2      OT      -0.834000       15.9994           0
     18350 TIP3     1517     TIP3     H1       HT       0.417000       1.00800           0
     18351 TIP3     1517     TIP3     H2       HT       0.417000       1.00800           0
     18352 TIP3     1518     TIP3     OH2      OT      -0.834000       15.9994           0
     18353 TIP3     1518     TIP3     H1       HT       0.417000       1.00800           0
     18354 TIP3     1518     TIP3     H2       HT       0.417000       1.00800           0
     18355 TIP3     1519     TIP3     OH2      OT      -0.834000       15.9994           0
     18356 TIP3     1519     TIP3     H1       HT       0.417000       1.00800           0
     18357 TIP3     1519     TIP3     H2       HT       0.417000       1.00800           0
     18358 TIP3     1520     TIP3     OH2      OT      -0.834000       15.9994           0
     18359 TIP3     1520     TIP3     H1       HT       0.417000       1.00800           0
     18360 TIP3     1520     TIP3     H2       HT       0.417000       1.00800           0
     18361 TIP3     1521     TIP3     OH2      OT      -0.834000       15.9994           0
     18362 TIP3     1521     TIP3     H1       HT       0.417000       1.00800           0
     18363 TIP3     1521     TIP3     H2       HT       0.417000       1.00800           0
     18364 TIP3     1522     TIP3     OH2      OT      -0.834000       15.9994           0
     18365 TIP3     1522     TIP3     H1       HT       0.417000       1.00800           0
     18366 TIP3     1522     TIP3     H2       HT       0.417000       1.00800           0
     18367 TIP3     1523     TIP3     OH2      OT      -0.834000       15.9994           0
     18368 TIP3     1523     TIP3     H1       HT       0.417000       1.00800           0
     18369 TIP3     1523     TIP3     H2       HT       0.417000       1.00800           0
     18370 TIP3     1524     TIP3     OH2      OT      -0.834000       15.9994           0
     18371 TIP3     1524     TIP3     H1       HT       0.417000       1.00800           0
     18372 TIP3     1524     TIP3     H2       HT       0.417000       1.00800           0
     18373 TIP3     1525     TIP3     OH2      OT      -0.834000       15.9994           0
     18374 TIP3     1525     TIP3     H1       HT       0.417000       1.00800           0
     18375 TIP3     1525     TIP3     H2       HT       0.417000       1.00800           0
     18376 TIP3     1526     TIP3     OH2      OT      -0.834000       15.9994           0
     18377 TIP3     1526     TIP3     H1       HT       0.417000       1.00800           0
     18378 TIP3     1526     TIP3     H2       HT       0.417000       1.00800           0
     18379 TIP3     1527     TIP3     OH2      OT      -0.834000       15.9994           0
     18380 TIP3     1527     TIP3     H1       HT       0.417000       1.00800           0
     18381 TIP3     1527     TIP3     H2       HT       0.417000       1.00800           0
     18382 TIP3     1528     TIP3     OH2      OT      -0.834000       15.9994           0
     18383 TIP3     1528     TIP3     H1       HT       0.417000       1.00800           0
     18384 TIP3     1528     TIP3     H2       HT       0.417000       1.00800           0
     18385 TIP3     1529     TIP3     OH2      OT      -0.834000       15.9994           0
     18386 TIP3     1529     TIP3     H1       HT       0.417000       1.00800           0
     18387 TIP3     1529     TIP3     H2       HT       0.417000       1.00800           0
     18388 TIP3     1530     TIP3     OH2      OT      -0.834000       15.9994           0
     18389 TIP3     1530     TIP3     H1       HT       0.417000       1.00800           0
     18390 TIP3     1530     TIP3     H2       HT       0.417000       1.00800           0
     18391 TIP3     1531     TIP3     OH2      OT      -0.834000       15.9994           0
     18392 TIP3     1531     TIP3     H1       HT       0.417000       1.00800           0
     18393 TIP3     1531     TIP3     H2       HT       0.417000       1.00800           0
     18394 TIP3     1532     TIP3     OH2      OT      -0.834000       15.9994           0
     18395 TIP3     1532     TIP3     H1       HT       0.417000       1.00800           0
     18396 TIP3     1532     TIP3     H2       HT       0.417000       1.00800           0
     18397 TIP3     1533     TIP3     OH2      OT      -0.834000       15.9994           0
     18398 TIP3     1533     TIP3     H1       HT       0.417000       1.00800           0
     18399 TIP3     1533     TIP3     H2       HT       0.417000       1.00800           0
     18400 TIP3     1534     TIP3     OH2      OT      -0.834000       15.9994           0
     18401 TIP3     1534     TIP3     H1       HT       0.417000       1.00800           0
     18402 TIP3     1534     TIP3     H2       HT       0.417000       1.00800           0
     18403 TIP3     1535     TIP3     OH2      OT      -0.834000       15.9994           0
     18404 TIP3     1535     TIP3     H1       HT       0.417000       1.00800           0
     18405 TIP3     1535     TIP3     H2       HT       0.417000       1.00800           0
     18406 TIP3     1536     TIP3     OH2      OT      -0.834000       15.9994           0
     18407 TIP3     1536     TIP3     H1       HT       0.417000       1.00800           0
     18408 TIP3     1536     TIP3     H2       HT       0.417000       1.00800           0
     18409 TIP3     1537     TIP3     OH2      OT      -0.834000       15.9994           0
     18410 TIP3     1537     TIP3     H1       HT       0.417000       1.00800           0
     18411 TIP3     1537     TIP3     H2       HT       0.417000       1.00800           0
     18412 TIP3     1538     TIP3     OH2      OT      -0.834000       15.9994           0
     18413 TIP3     1538     TIP3     H1       HT       0.417000       1.00800           0
     18414 TIP3     1538     TIP3     H2       HT       0.417000       1.00800           0
     18415 TIP3     1539     TIP3     OH2      OT      -0.834000       15.9994           0
     18416 TIP3     1539     TIP3     H1       HT       0.417000       1.00800           0
     18417 TIP3     1539     TIP3     H2       HT       0.417000       1.00800           0
     18418 TIP3     1540     TIP3     OH2      OT      -0.834000       15.9994           0
     18419 TIP3     1540     TIP3     H1       HT       0.417000       1.00800           0
     18420 TIP3     1540     TIP3     H2       HT       0.417000       1.00800           0
     18421 TIP3     1541     TIP3     OH2      OT      -0.834000       15.9994           0
     18422 TIP3     1541     TIP3     H1       HT       0.417000       1.00800           0
     18423 TIP3     1541     TIP3     H2       HT       0.417000       1.00800           0
     18424 TIP3     1542     TIP3     OH2      OT      -0.834000       15.9994           0
     18425 TIP3     1542     TIP3     H1       HT       0.417000       1.00800           0
     18426 TIP3     1542     TIP3     H2       HT       0.417000       1.00800           0
     18427 TIP3     1543     TIP3     OH2      OT      -0.834000       15.9994           0
     18428 TIP3     1543     TIP3     H1       HT       0.417000       1.00800           0
     18429 TIP3     1543     TIP3     H2       HT       0.417000       1.00800           0
     18430 TIP3     1544     TIP3     OH2      OT      -0.834000       15.9994           0
     18431 TIP3     1544     TIP3     H1       HT       0.417000       1.00800           0
     18432 TIP3     1544     TIP3     H2       HT       0.417000       1.00800           0
     18433 TIP3     1545     TIP3     OH2      OT      -0.834000       15.9994           0
     18434 TIP3     1545     TIP3     H1       HT       0.417000       1.00800           0
     18435 TIP3     1545     TIP3     H2       HT       0.417000       1.00800           0
     18436 TIP3     1546     TIP3     OH2      OT      -0.834000       15.9994           0
     18437 TIP3     1546     TIP3     H1       HT       0.417000       1.00800           0
     18438 TIP3     1546     TIP3     H2       HT       0.417000       1.00800           0
     18439 TIP3     1547     TIP3     OH2      OT      -0.834000       15.9994           0
     18440 TIP3     1547     TIP3     H1       HT       0.417000       1.00800           0
     18441 TIP3     1547     TIP3     H2       HT       0.417000       1.00800           0
     18442 TIP3     1548     TIP3     OH2      OT      -0.834000       15.9994           0
     18443 TIP3     1548     TIP3     H1       HT       0.417000       1.00800           0
     18444 TIP3     1548     TIP3     H2       HT       0.417000       1.00800           0
     18445 TIP3     1549     TIP3     OH2      OT      -0.834000       15.9994           0
     18446 TIP3     1549     TIP3     H1       HT       0.417000       1.00800           0
     18447 TIP3     1549     TIP3     H2       HT       0.417000       1.00800           0
     18448 TIP3     1550     TIP3     OH2      OT      -0.834000       15.9994           0
     18449 TIP3     1550     TIP3     H1       HT       0.417000       1.00800           0
     18450 TIP3     1550     TIP3     H2       HT       0.417000       1.00800           0
     18451 TIP3     1551     TIP3     OH2      OT      -0.834000       15.9994           0
     18452 TIP3     1551     TIP3     H1       HT       0.417000       1.00800           0
     18453 TIP3     1551     TIP3     H2       HT       0.417000       1.00800           0
     18454 TIP3     1552     TIP3     OH2      OT      -0.834000       15.9994           0
     18455 TIP3     1552     TIP3     H1       HT       0.417000       1.00800           0
     18456 TIP3     1552     TIP3     H2       HT       0.417000       1.00800           0
     18457 TIP3     1553     TIP3     OH2      OT      -0.834000       15.9994           0
     18458 TIP3     1553     TIP3     H1       HT       0.417000       1.00800           0
     18459 TIP3     1553     TIP3     H2       HT       0.417000       1.00800           0
     18460 TIP3     1554     TIP3     OH2      OT      -0.834000       15.9994           0
     18461 TIP3     1554     TIP3     H1       HT       0.417000       1.00800           0
     18462 TIP3     1554     TIP3     H2       HT       0.417000       1.00800           0
     18463 TIP3     1555     TIP3     OH2      OT      -0.834000       15.9994           0
     18464 TIP3     1555     TIP3     H1       HT       0.417000       1.00800           0
     18465 TIP3     1555     TIP3     H2       HT       0.417000       1.00800           0
     18466 TIP3     1556     TIP3     OH2      OT      -0.834000       15.9994           0
     18467 TIP3     1556     TIP3     H1       HT       0.417000       1.00800           0
     18468 TIP3     1556     TIP3     H2       HT       0.417000       1.00800           0
     18469 TIP3     1557     TIP3     OH2      OT      -0.834000       15.9994           0
     18470 TIP3     1557     TIP3     H1       HT       0.417000       1.00800           0
     18471 TIP3     1557     TIP3     H2       HT       0.417000       1.00800           0
     18472 TIP3     1558     TIP3     OH2      OT      -0.834000       15.9994           0
     18473 TIP3     1558     TIP3     H1       HT       0.417000       1.00800           0
     18474 TIP3     1558     TIP3     H2       HT       0.417000       1.00800           0
     18475 TIP3     1559     TIP3     OH2      OT      -0.834000       15.9994           0
     18476 TIP3     1559     TIP3     H1       HT       0.417000       1.00800           0
     18477 TIP3     1559     TIP3     H2       HT       0.417000       1.00800           0
     18478 TIP3     1560     TIP3     OH2      OT      -0.834000       15.9994           0
     18479 TIP3     1560     TIP3     H1       HT       0.417000       1.00800           0
     18480 TIP3     1560     TIP3     H2       HT       0.417000       1.00800           0
     18481 TIP3     1561     TIP3     OH2      OT      -0.834000       15.9994           0
     18482 TIP3     1561     TIP3     H1       HT       0.417000       1.00800           0
     18483 TIP3     1561     TIP3     H2       HT       0.417000       1.00800           0
     18484 TIP3     1562     TIP3     OH2      OT      -0.834000       15.9994           0
     18485 TIP3     1562     TIP3     H1       HT       0.417000       1.00800           0
     18486 TIP3     1562     TIP3     H2       HT       0.417000       1.00800           0
     18487 TIP3     1563     TIP3     OH2      OT      -0.834000       15.9994           0
     18488 TIP3     1563     TIP3     H1       HT       0.417000       1.00800           0
     18489 TIP3     1563     TIP3     H2       HT       0.417000       1.00800           0
     18490 TIP3     1564     TIP3     OH2      OT      -0.834000       15.9994           0
     18491 TIP3     1564     TIP3     H1       HT       0.417000       1.00800           0
     18492 TIP3     1564     TIP3     H2       HT       0.417000       1.00800           0
     18493 TIP3     1565     TIP3     OH2      OT      -0.834000       15.9994           0
     18494 TIP3     1565     TIP3     H1       HT       0.417000       1.00800           0
     18495 TIP3     1565     TIP3     H2       HT       0.417000       1.00800           0
     18496 TIP3     1566     TIP3     OH2      OT      -0.834000       15.9994           0
     18497 TIP3     1566     TIP3     H1       HT       0.417000       1.00800           0
     18498 TIP3     1566     TIP3     H2       HT       0.417000       1.00800           0
     18499 TIP3     1567     TIP3     OH2      OT      -0.834000       15.9994           0
     18500 TIP3     1567     TIP3     H1       HT       0.417000       1.00800           0
     18501 TIP3     1567     TIP3     H2       HT       0.417000       1.00800           0
     18502 TIP3     1568     TIP3     OH2      OT      -0.834000       15.9994           0
     18503 TIP3     1568     TIP3     H1       HT       0.417000       1.00800           0
     18504 TIP3     1568     TIP3     H2       HT       0.417000       1.00800           0
     18505 TIP3     1569     TIP3     OH2      OT      -0.834000       15.9994           0
     18506 TIP3     1569     TIP3     H1       HT       0.417000       1.00800           0
     18507 TIP3     1569     TIP3     H2       HT       0.417000       1.00800           0
     18508 TIP3     1570     TIP3     OH2      OT      -0.834000       15.9994           0
     18509 TIP3     1570     TIP3     H1       HT       0.417000       1.00800           0
     18510 TIP3     1570     TIP3     H2       HT       0.417000       1.00800           0
     18511 TIP3     1571     TIP3     OH2      OT      -0.834000       15.9994           0
     18512 TIP3     1571     TIP3     H1       HT       0.417000       1.00800           0
     18513 TIP3     1571     TIP3     H2       HT       0.417000       1.00800           0
     18514 TIP3     1572     TIP3     OH2      OT      -0.834000       15.9994           0
     18515 TIP3     1572     TIP3     H1       HT       0.417000       1.00800           0
     18516 TIP3     1572     TIP3     H2       HT       0.417000       1.00800           0
     18517 TIP3     1573     TIP3     OH2      OT      -0.834000       15.9994           0
     18518 TIP3     1573     TIP3     H1       HT       0.417000       1.00800           0
     18519 TIP3     1573     TIP3     H2       HT       0.417000       1.00800           0
     18520 TIP3     1574     TIP3     OH2      OT      -0.834000       15.9994           0
     18521 TIP3     1574     TIP3     H1       HT       0.417000       1.00800           0
     18522 TIP3     1574     TIP3     H2       HT       0.417000       1.00800           0
     18523 TIP3     1575     TIP3     OH2      OT      -0.834000       15.9994           0
     18524 TIP3     1575     TIP3     H1       HT       0.417000       1.00800           0
     18525 TIP3     1575     TIP3     H2       HT       0.417000       1.00800           0
     18526 TIP3     1576     TIP3     OH2      OT      -0.834000       15.9994           0
     18527 TIP3     1576     TIP3     H1       HT       0.417000       1.00800           0
     18528 TIP3     1576     TIP3     H2       HT       0.417000       1.00800           0
     18529 TIP3     1577     TIP3     OH2      OT      -0.834000       15.9994           0
     18530 TIP3     1577     TIP3     H1       HT       0.417000       1.00800           0
     18531 TIP3     1577     TIP3     H2       HT       0.417000       1.00800           0
     18532 TIP3     1578     TIP3     OH2      OT      -0.834000       15.9994           0
     18533 TIP3     1578     TIP3     H1       HT       0.417000       1.00800           0
     18534 TIP3     1578     TIP3     H2       HT       0.417000       1.00800           0
     18535 TIP3     1579     TIP3     OH2      OT      -0.834000       15.9994           0
     18536 TIP3     1579     TIP3     H1       HT       0.417000       1.00800           0
     18537 TIP3     1579     TIP3     H2       HT       0.417000       1.00800           0
     18538 TIP3     1580     TIP3     OH2      OT      -0.834000       15.9994           0
     18539 TIP3     1580     TIP3     H1       HT       0.417000       1.00800           0
     18540 TIP3     1580     TIP3     H2       HT       0.417000       1.00800           0
     18541 TIP3     1581     TIP3     OH2      OT      -0.834000       15.9994           0
     18542 TIP3     1581     TIP3     H1       HT       0.417000       1.00800           0
     18543 TIP3     1581     TIP3     H2       HT       0.417000       1.00800           0
     18544 TIP3     1582     TIP3     OH2      OT      -0.834000       15.9994           0
     18545 TIP3     1582     TIP3     H1       HT       0.417000       1.00800           0
     18546 TIP3     1582     TIP3     H2       HT       0.417000       1.00800           0
     18547 TIP3     1583     TIP3     OH2      OT      -0.834000       15.9994           0
     18548 TIP3     1583     TIP3     H1       HT       0.417000       1.00800           0
     18549 TIP3     1583     TIP3     H2       HT       0.417000       1.00800           0
     18550 TIP3     1584     TIP3     OH2      OT      -0.834000       15.9994           0
     18551 TIP3     1584     TIP3     H1       HT       0.417000       1.00800           0
     18552 TIP3     1584     TIP3     H2       HT       0.417000       1.00800           0
     18553 TIP3     1585     TIP3     OH2      OT      -0.834000       15.9994           0
     18554 TIP3     1585     TIP3     H1       HT       0.417000       1.00800           0
     18555 TIP3     1585     TIP3     H2       HT       0.417000       1.00800           0
     18556 TIP3     1586     TIP3     OH2      OT      -0.834000       15.9994           0
     18557 TIP3     1586     TIP3     H1       HT       0.417000       1.00800           0
     18558 TIP3     1586     TIP3     H2       HT       0.417000       1.00800           0
     18559 TIP3     1587     TIP3     OH2      OT      -0.834000       15.9994           0
     18560 TIP3     1587     TIP3     H1       HT       0.417000       1.00800           0
     18561 TIP3     1587     TIP3     H2       HT       0.417000       1.00800           0
     18562 TIP3     1588     TIP3     OH2      OT      -0.834000       15.9994           0
     18563 TIP3     1588     TIP3     H1       HT       0.417000       1.00800           0
     18564 TIP3     1588     TIP3     H2       HT       0.417000       1.00800           0
     18565 TIP3     1589     TIP3     OH2      OT      -0.834000       15.9994           0
     18566 TIP3     1589     TIP3     H1       HT       0.417000       1.00800           0
     18567 TIP3     1589     TIP3     H2       HT       0.417000       1.00800           0
     18568 TIP3     1590     TIP3     OH2      OT      -0.834000       15.9994           0
     18569 TIP3     1590     TIP3     H1       HT       0.417000       1.00800           0
     18570 TIP3     1590     TIP3     H2       HT       0.417000       1.00800           0
     18571 TIP3     1591     TIP3     OH2      OT      -0.834000       15.9994           0
     18572 TIP3     1591     TIP3     H1       HT       0.417000       1.00800           0
     18573 TIP3     1591     TIP3     H2       HT       0.417000       1.00800           0
     18574 TIP3     1592     TIP3     OH2      OT      -0.834000       15.9994           0
     18575 TIP3     1592     TIP3     H1       HT       0.417000       1.00800           0
     18576 TIP3     1592     TIP3     H2       HT       0.417000       1.00800           0
     18577 TIP3     1593     TIP3     OH2      OT      -0.834000       15.9994           0
     18578 TIP3     1593     TIP3     H1       HT       0.417000       1.00800           0
     18579 TIP3     1593     TIP3     H2       HT       0.417000       1.00800           0
     18580 TIP3     1594     TIP3     OH2      OT      -0.834000       15.9994           0
     18581 TIP3     1594     TIP3     H1       HT       0.417000       1.00800           0
     18582 TIP3     1594     TIP3     H2       HT       0.417000       1.00800           0
     18583 TIP3     1595     TIP3     OH2      OT      -0.834000       15.9994           0
     18584 TIP3     1595     TIP3     H1       HT       0.417000       1.00800           0
     18585 TIP3     1595     TIP3     H2       HT       0.417000       1.00800           0
     18586 TIP3     1596     TIP3     OH2      OT      -0.834000       15.9994           0
     18587 TIP3     1596     TIP3     H1       HT       0.417000       1.00800           0
     18588 TIP3     1596     TIP3     H2       HT       0.417000       1.00800           0
     18589 TIP3     1597     TIP3     OH2      OT      -0.834000       15.9994           0
     18590 TIP3     1597     TIP3     H1       HT       0.417000       1.00800           0
     18591 TIP3     1597     TIP3     H2       HT       0.417000       1.00800           0
     18592 TIP3     1598     TIP3     OH2      OT      -0.834000       15.9994           0
     18593 TIP3     1598     TIP3     H1       HT       0.417000       1.00800           0
     18594 TIP3     1598     TIP3     H2       HT       0.417000       1.00800           0
     18595 TIP3     1599     TIP3     OH2      OT      -0.834000       15.9994           0
     18596 TIP3     1599     TIP3     H1       HT       0.417000       1.00800           0
     18597 TIP3     1599     TIP3     H2       HT       0.417000       1.00800           0
     18598 TIP3     1600     TIP3     OH2      OT      -0.834000       15.9994           0
     18599 TIP3     1600     TIP3     H1       HT       0.417000       1.00800           0
     18600 TIP3     1600     TIP3     H2       HT       0.417000       1.00800           0
     18601 TIP3     1601     TIP3     OH2      OT      -0.834000       15.9994           0
     18602 TIP3     1601     TIP3     H1       HT       0.417000       1.00800           0
     18603 TIP3     1601     TIP3     H2       HT       0.417000       1.00800           0
     18604 TIP3     1602     TIP3     OH2      OT      -0.834000       15.9994           0
     18605 TIP3     1602     TIP3     H1       HT       0.417000       1.00800           0
     18606 TIP3     1602     TIP3     H2       HT       0.417000       1.00800           0
     18607 TIP3     1603     TIP3     OH2      OT      -0.834000       15.9994           0
     18608 TIP3     1603     TIP3     H1       HT       0.417000       1.00800           0
     18609 TIP3     1603     TIP3     H2       HT       0.417000       1.00800           0
     18610 TIP3     1604     TIP3     OH2      OT      -0.834000       15.9994           0
     18611 TIP3     1604     TIP3     H1       HT       0.417000       1.00800           0
     18612 TIP3     1604     TIP3     H2       HT       0.417000       1.00800           0
     18613 TIP3     1605     TIP3     OH2      OT      -0.834000       15.9994           0
     18614 TIP3     1605     TIP3     H1       HT       0.417000       1.00800           0
     18615 TIP3     1605     TIP3     H2       HT       0.417000       1.00800           0
     18616 TIP3     1606     TIP3     OH2      OT      -0.834000       15.9994           0
     18617 TIP3     1606     TIP3     H1       HT       0.417000       1.00800           0
     18618 TIP3     1606     TIP3     H2       HT       0.417000       1.00800           0
     18619 TIP3     1607     TIP3     OH2      OT      -0.834000       15.9994           0
     18620 TIP3     1607     TIP3     H1       HT       0.417000       1.00800           0
     18621 TIP3     1607     TIP3     H2       HT       0.417000       1.00800           0
     18622 TIP3     1608     TIP3     OH2      OT      -0.834000       15.9994           0
     18623 TIP3     1608     TIP3     H1       HT       0.417000       1.00800           0
     18624 TIP3     1608     TIP3     H2       HT       0.417000       1.00800           0
     18625 TIP3     1609     TIP3     OH2      OT      -0.834000       15.9994           0
     18626 TIP3     1609     TIP3     H1       HT       0.417000       1.00800           0
     18627 TIP3     1609     TIP3     H2       HT       0.417000       1.00800           0
     18628 TIP3     1610     TIP3     OH2      OT      -0.834000       15.9994           0
     18629 TIP3     1610     TIP3     H1       HT       0.417000       1.00800           0
     18630 TIP3     1610     TIP3     H2       HT       0.417000       1.00800           0
     18631 TIP3     1611     TIP3     OH2      OT      -0.834000       15.9994           0
     18632 TIP3     1611     TIP3     H1       HT       0.417000       1.00800           0
     18633 TIP3     1611     TIP3     H2       HT       0.417000       1.00800           0
     18634 TIP3     1612     TIP3     OH2      OT      -0.834000       15.9994           0
     18635 TIP3     1612     TIP3     H1       HT       0.417000       1.00800           0
     18636 TIP3     1612     TIP3     H2       HT       0.417000       1.00800           0
     18637 TIP3     1613     TIP3     OH2      OT      -0.834000       15.9994           0
     18638 TIP3     1613     TIP3     H1       HT       0.417000       1.00800           0
     18639 TIP3     1613     TIP3     H2       HT       0.417000       1.00800           0
     18640 TIP3     1614     TIP3     OH2      OT      -0.834000       15.9994           0
     18641 TIP3     1614     TIP3     H1       HT       0.417000       1.00800           0
     18642 TIP3     1614     TIP3     H2       HT       0.417000       1.00800           0
     18643 TIP3     1615     TIP3     OH2      OT      -0.834000       15.9994           0
     18644 TIP3     1615     TIP3     H1       HT       0.417000       1.00800           0
     18645 TIP3     1615     TIP3     H2       HT       0.417000       1.00800           0
     18646 TIP3     1616     TIP3     OH2      OT      -0.834000       15.9994           0
     18647 TIP3     1616     TIP3     H1       HT       0.417000       1.00800           0
     18648 TIP3     1616     TIP3     H2       HT       0.417000       1.00800           0
     18649 TIP3     1617     TIP3     OH2      OT      -0.834000       15.9994           0
     18650 TIP3     1617     TIP3     H1       HT       0.417000       1.00800           0
     18651 TIP3     1617     TIP3     H2       HT       0.417000       1.00800           0
     18652 TIP3     1618     TIP3     OH2      OT      -0.834000       15.9994           0
     18653 TIP3     1618     TIP3     H1       HT       0.417000       1.00800           0
     18654 TIP3     1618     TIP3     H2       HT       0.417000       1.00800           0
     18655 TIP3     1619     TIP3     OH2      OT      -0.834000       15.9994           0
     18656 TIP3     1619     TIP3     H1       HT       0.417000       1.00800           0
     18657 TIP3     1619     TIP3     H2       HT       0.417000       1.00800           0
     18658 TIP3     1620     TIP3     OH2      OT      -0.834000       15.9994           0
     18659 TIP3     1620     TIP3     H1       HT       0.417000       1.00800           0
     18660 TIP3     1620     TIP3     H2       HT       0.417000       1.00800           0
     18661 TIP3     1621     TIP3     OH2      OT      -0.834000       15.9994           0
     18662 TIP3     1621     TIP3     H1       HT       0.417000       1.00800           0
     18663 TIP3     1621     TIP3     H2       HT       0.417000       1.00800           0
     18664 TIP3     1622     TIP3     OH2      OT      -0.834000       15.9994           0
     18665 TIP3     1622     TIP3     H1       HT       0.417000       1.00800           0
     18666 TIP3     1622     TIP3     H2       HT       0.417000       1.00800           0
     18667 TIP3     1623     TIP3     OH2      OT      -0.834000       15.9994           0
     18668 TIP3     1623     TIP3     H1       HT       0.417000       1.00800           0
     18669 TIP3     1623     TIP3     H2       HT       0.417000       1.00800           0
     18670 TIP3     1624     TIP3     OH2      OT      -0.834000       15.9994           0
     18671 TIP3     1624     TIP3     H1       HT       0.417000       1.00800           0
     18672 TIP3     1624     TIP3     H2       HT       0.417000       1.00800           0
     18673 TIP3     1625     TIP3     OH2      OT      -0.834000       15.9994           0
     18674 TIP3     1625     TIP3     H1       HT       0.417000       1.00800           0
     18675 TIP3     1625     TIP3     H2       HT       0.417000       1.00800           0
     18676 TIP3     1626     TIP3     OH2      OT      -0.834000       15.9994           0
     18677 TIP3     1626     TIP3     H1       HT       0.417000       1.00800           0
     18678 TIP3     1626     TIP3     H2       HT       0.417000       1.00800           0
     18679 TIP3     1627     TIP3     OH2      OT      -0.834000       15.9994           0
     18680 TIP3     1627     TIP3     H1       HT       0.417000       1.00800           0
     18681 TIP3     1627     TIP3     H2       HT       0.417000       1.00800           0
     18682 TIP3     1628     TIP3     OH2      OT      -0.834000       15.9994           0
     18683 TIP3     1628     TIP3     H1       HT       0.417000       1.00800           0
     18684 TIP3     1628     TIP3     H2       HT       0.417000       1.00800           0
     18685 TIP3     1629     TIP3     OH2      OT      -0.834000       15.9994           0
     18686 TIP3     1629     TIP3     H1       HT       0.417000       1.00800           0
     18687 TIP3     1629     TIP3     H2       HT       0.417000       1.00800           0
     18688 TIP3     1630     TIP3     OH2      OT      -0.834000       15.9994           0
     18689 TIP3     1630     TIP3     H1       HT       0.417000       1.00800           0
     18690 TIP3     1630     TIP3     H2       HT       0.417000       1.00800           0
     18691 TIP3     1631     TIP3     OH2      OT      -0.834000       15.9994           0
     18692 TIP3     1631     TIP3     H1       HT       0.417000       1.00800           0
     18693 TIP3     1631     TIP3     H2       HT       0.417000       1.00800           0
     18694 TIP3     1632     TIP3     OH2      OT      -0.834000       15.9994           0
     18695 TIP3     1632     TIP3     H1       HT       0.417000       1.00800           0
     18696 TIP3     1632     TIP3     H2       HT       0.417000       1.00800           0
     18697 TIP3     1633     TIP3     OH2      OT      -0.834000       15.9994           0
     18698 TIP3     1633     TIP3     H1       HT       0.417000       1.00800           0
     18699 TIP3     1633     TIP3     H2       HT       0.417000       1.00800           0
     18700 TIP3     1634     TIP3     OH2      OT      -0.834000       15.9994           0
     18701 TIP3     1634     TIP3     H1       HT       0.417000       1.00800           0
     18702 TIP3     1634     TIP3     H2       HT       0.417000       1.00800           0
     18703 TIP3     1635     TIP3     OH2      OT      -0.834000       15.9994           0
     18704 TIP3     1635     TIP3     H1       HT       0.417000       1.00800           0
     18705 TIP3     1635     TIP3     H2       HT       0.417000       1.00800           0
     18706 TIP3     1636     TIP3     OH2      OT      -0.834000       15.9994           0
     18707 TIP3     1636     TIP3     H1       HT       0.417000       1.00800           0
     18708 TIP3     1636     TIP3     H2       HT       0.417000       1.00800           0
     18709 TIP3     1637     TIP3     OH2      OT      -0.834000       15.9994           0
     18710 TIP3     1637     TIP3     H1       HT       0.417000       1.00800           0
     18711 TIP3     1637     TIP3     H2       HT       0.417000       1.00800           0
     18712 TIP3     1638     TIP3     OH2      OT      -0.834000       15.9994           0
     18713 TIP3     1638     TIP3     H1       HT       0.417000       1.00800           0
     18714 TIP3     1638     TIP3     H2       HT       0.417000       1.00800           0
     18715 TIP3     1639     TIP3     OH2      OT      -0.834000       15.9994           0
     18716 TIP3     1639     TIP3     H1       HT       0.417000       1.00800           0
     18717 TIP3     1639     TIP3     H2       HT       0.417000       1.00800           0
     18718 TIP3     1640     TIP3     OH2      OT      -0.834000       15.9994           0
     18719 TIP3     1640     TIP3     H1       HT       0.417000       1.00800           0
     18720 TIP3     1640     TIP3     H2       HT       0.417000       1.00800           0
     18721 TIP3     1641     TIP3     OH2      OT      -0.834000       15.9994           0
     18722 TIP3     1641     TIP3     H1       HT       0.417000       1.00800           0
     18723 TIP3     1641     TIP3     H2       HT       0.417000       1.00800           0
     18724 TIP3     1642     TIP3     OH2      OT      -0.834000       15.9994           0
     18725 TIP3     1642     TIP3     H1       HT       0.417000       1.00800           0
     18726 TIP3     1642     TIP3     H2       HT       0.417000       1.00800           0
     18727 TIP3     1643     TIP3     OH2      OT      -0.834000       15.9994           0
     18728 TIP3     1643     TIP3     H1       HT       0.417000       1.00800           0
     18729 TIP3     1643     TIP3     H2       HT       0.417000       1.00800           0
     18730 TIP3     1644     TIP3     OH2      OT      -0.834000       15.9994           0
     18731 TIP3     1644     TIP3     H1       HT       0.417000       1.00800           0
     18732 TIP3     1644     TIP3     H2       HT       0.417000       1.00800           0
     18733 TIP3     1645     TIP3     OH2      OT      -0.834000       15.9994           0
     18734 TIP3     1645     TIP3     H1       HT       0.417000       1.00800           0
     18735 TIP3     1645     TIP3     H2       HT       0.417000       1.00800           0
     18736 TIP3     1646     TIP3     OH2      OT      -0.834000       15.9994           0
     18737 TIP3     1646     TIP3     H1       HT       0.417000       1.00800           0
     18738 TIP3     1646     TIP3     H2       HT       0.417000       1.00800           0
     18739 TIP3     1647     TIP3     OH2      OT      -0.834000       15.9994           0
     18740 TIP3     1647     TIP3     H1       HT       0.417000       1.00800           0
     18741 TIP3     1647     TIP3     H2       HT       0.417000       1.00800           0
     18742 TIP3     1648     TIP3     OH2      OT      -0.834000       15.9994           0
     18743 TIP3     1648     TIP3     H1       HT       0.417000       1.00800           0
     18744 TIP3     1648     TIP3     H2       HT       0.417000       1.00800           0
     18745 TIP3     1649     TIP3     OH2      OT      -0.834000       15.9994           0
     18746 TIP3     1649     TIP3     H1       HT       0.417000       1.00800           0
     18747 TIP3     1649     TIP3     H2       HT       0.417000       1.00800           0
     18748 TIP3     1650     TIP3     OH2      OT      -0.834000       15.9994           0
     18749 TIP3     1650     TIP3     H1       HT       0.417000       1.00800           0
     18750 TIP3     1650     TIP3     H2       HT       0.417000       1.00800           0
     18751 TIP3     1651     TIP3     OH2      OT      -0.834000       15.9994           0
     18752 TIP3     1651     TIP3     H1       HT       0.417000       1.00800           0
     18753 TIP3     1651     TIP3     H2       HT       0.417000       1.00800           0
     18754 TIP3     1652     TIP3     OH2      OT      -0.834000       15.9994           0
     18755 TIP3     1652     TIP3     H1       HT       0.417000       1.00800           0
     18756 TIP3     1652     TIP3     H2       HT       0.417000       1.00800           0
     18757 TIP3     1653     TIP3     OH2      OT      -0.834000       15.9994           0
     18758 TIP3     1653     TIP3     H1       HT       0.417000       1.00800           0
     18759 TIP3     1653     TIP3     H2       HT       0.417000       1.00800           0
     18760 TIP3     1654     TIP3     OH2      OT      -0.834000       15.9994           0
     18761 TIP3     1654     TIP3     H1       HT       0.417000       1.00800           0
     18762 TIP3     1654     TIP3     H2       HT       0.417000       1.00800           0
     18763 TIP3     1655     TIP3     OH2      OT      -0.834000       15.9994           0
     18764 TIP3     1655     TIP3     H1       HT       0.417000       1.00800           0
     18765 TIP3     1655     TIP3     H2       HT       0.417000       1.00800           0
     18766 TIP3     1656     TIP3     OH2      OT      -0.834000       15.9994           0
     18767 TIP3     1656     TIP3     H1       HT       0.417000       1.00800           0
     18768 TIP3     1656     TIP3     H2       HT       0.417000       1.00800           0
     18769 TIP3     1657     TIP3     OH2      OT      -0.834000       15.9994           0
     18770 TIP3     1657     TIP3     H1       HT       0.417000       1.00800           0
     18771 TIP3     1657     TIP3     H2       HT       0.417000       1.00800           0
     18772 TIP3     1658     TIP3     OH2      OT      -0.834000       15.9994           0
     18773 TIP3     1658     TIP3     H1       HT       0.417000       1.00800           0
     18774 TIP3     1658     TIP3     H2       HT       0.417000       1.00800           0
     18775 TIP3     1659     TIP3     OH2      OT      -0.834000       15.9994           0
     18776 TIP3     1659     TIP3     H1       HT       0.417000       1.00800           0
     18777 TIP3     1659     TIP3     H2       HT       0.417000       1.00800           0
     18778 TIP3     1660     TIP3     OH2      OT      -0.834000       15.9994           0
     18779 TIP3     1660     TIP3     H1       HT       0.417000       1.00800           0
     18780 TIP3     1660     TIP3     H2       HT       0.417000       1.00800           0
     18781 TIP3     1661     TIP3     OH2      OT      -0.834000       15.9994           0
     18782 TIP3     1661     TIP3     H1       HT       0.417000       1.00800           0
     18783 TIP3     1661     TIP3     H2       HT       0.417000       1.00800           0
     18784 TIP3     1662     TIP3     OH2      OT      -0.834000       15.9994           0
     18785 TIP3     1662     TIP3     H1       HT       0.417000       1.00800           0
     18786 TIP3     1662     TIP3     H2       HT       0.417000       1.00800           0
     18787 TIP3     1663     TIP3     OH2      OT      -0.834000       15.9994           0
     18788 TIP3     1663     TIP3     H1       HT       0.417000       1.00800           0
     18789 TIP3     1663     TIP3     H2       HT       0.417000       1.00800           0
     18790 TIP3     1664     TIP3     OH2      OT      -0.834000       15.9994           0
     18791 TIP3     1664     TIP3     H1       HT       0.417000       1.00800           0
     18792 TIP3     1664     TIP3     H2       HT       0.417000       1.00800           0
     18793 TIP3     1665     TIP3     OH2      OT      -0.834000       15.9994           0
     18794 TIP3     1665     TIP3     H1       HT       0.417000       1.00800           0
     18795 TIP3     1665     TIP3     H2       HT       0.417000       1.00800           0
     18796 TIP3     1666     TIP3     OH2      OT      -0.834000       15.9994           0
     18797 TIP3     1666     TIP3     H1       HT       0.417000       1.00800           0
     18798 TIP3     1666     TIP3     H2       HT       0.417000       1.00800           0
     18799 TIP3     1667     TIP3     OH2      OT      -0.834000       15.9994           0
     18800 TIP3     1667     TIP3     H1       HT       0.417000       1.00800           0
     18801 TIP3     1667     TIP3     H2       HT       0.417000       1.00800           0
     18802 TIP3     1668     TIP3     OH2      OT      -0.834000       15.9994           0
     18803 TIP3     1668     TIP3     H1       HT       0.417000       1.00800           0
     18804 TIP3     1668     TIP3     H2       HT       0.417000       1.00800           0
     18805 TIP3     1669     TIP3     OH2      OT      -0.834000       15.9994           0
     18806 TIP3     1669     TIP3     H1       HT       0.417000       1.00800           0
     18807 TIP3     1669     TIP3     H2       HT       0.417000       1.00800           0
     18808 TIP3     1670     TIP3     OH2      OT      -0.834000       15.9994           0
     18809 TIP3     1670     TIP3     H1       HT       0.417000       1.00800           0
     18810 TIP3     1670     TIP3     H2       HT       0.417000       1.00800           0
     18811 TIP3     1671     TIP3     OH2      OT      -0.834000       15.9994           0
     18812 TIP3     1671     TIP3     H1       HT       0.417000       1.00800           0
     18813 TIP3     1671     TIP3     H2       HT       0.417000       1.00800           0
     18814 TIP3     1672     TIP3     OH2      OT      -0.834000       15.9994           0
     18815 TIP3     1672     TIP3     H1       HT       0.417000       1.00800           0
     18816 TIP3     1672     TIP3     H2       HT       0.417000       1.00800           0
     18817 TIP3     1673     TIP3     OH2      OT      -0.834000       15.9994           0
     18818 TIP3     1673     TIP3     H1       HT       0.417000       1.00800           0
     18819 TIP3     1673     TIP3     H2       HT       0.417000       1.00800           0
     18820 TIP3     1674     TIP3     OH2      OT      -0.834000       15.9994           0
     18821 TIP3     1674     TIP3     H1       HT       0.417000       1.00800           0
     18822 TIP3     1674     TIP3     H2       HT       0.417000       1.00800           0
     18823 TIP3     1675     TIP3     OH2      OT      -0.834000       15.9994           0
     18824 TIP3     1675     TIP3     H1       HT       0.417000       1.00800           0
     18825 TIP3     1675     TIP3     H2       HT       0.417000       1.00800           0
     18826 TIP3     1676     TIP3     OH2      OT      -0.834000       15.9994           0
     18827 TIP3     1676     TIP3     H1       HT       0.417000       1.00800           0
     18828 TIP3     1676     TIP3     H2       HT       0.417000       1.00800           0
     18829 TIP3     1677     TIP3     OH2      OT      -0.834000       15.9994           0
     18830 TIP3     1677     TIP3     H1       HT       0.417000       1.00800           0
     18831 TIP3     1677     TIP3     H2       HT       0.417000       1.00800           0
     18832 TIP3     1678     TIP3     OH2      OT      -0.834000       15.9994           0
     18833 TIP3     1678     TIP3     H1       HT       0.417000       1.00800           0
     18834 TIP3     1678     TIP3     H2       HT       0.417000       1.00800           0
     18835 TIP3     1679     TIP3     OH2      OT      -0.834000       15.9994           0
     18836 TIP3     1679     TIP3     H1       HT       0.417000       1.00800           0
     18837 TIP3     1679     TIP3     H2       HT       0.417000       1.00800           0
     18838 TIP3     1680     TIP3     OH2      OT      -0.834000       15.9994           0
     18839 TIP3     1680     TIP3     H1       HT       0.417000       1.00800           0
     18840 TIP3     1680     TIP3     H2       HT       0.417000       1.00800           0
     18841 TIP3     1681     TIP3     OH2      OT      -0.834000       15.9994           0
     18842 TIP3     1681     TIP3     H1       HT       0.417000       1.00800           0
     18843 TIP3     1681     TIP3     H2       HT       0.417000       1.00800           0
     18844 TIP3     1682     TIP3     OH2      OT      -0.834000       15.9994           0
     18845 TIP3     1682     TIP3     H1       HT       0.417000       1.00800           0
     18846 TIP3     1682     TIP3     H2       HT       0.417000       1.00800           0
     18847 TIP3     1683     TIP3     OH2      OT      -0.834000       15.9994           0
     18848 TIP3     1683     TIP3     H1       HT       0.417000       1.00800           0
     18849 TIP3     1683     TIP3     H2       HT       0.417000       1.00800           0
     18850 TIP3     1684     TIP3     OH2      OT      -0.834000       15.9994           0
     18851 TIP3     1684     TIP3     H1       HT       0.417000       1.00800           0
     18852 TIP3     1684     TIP3     H2       HT       0.417000       1.00800           0
     18853 TIP3     1685     TIP3     OH2      OT      -0.834000       15.9994           0
     18854 TIP3     1685     TIP3     H1       HT       0.417000       1.00800           0
     18855 TIP3     1685     TIP3     H2       HT       0.417000       1.00800           0
     18856 TIP3     1686     TIP3     OH2      OT      -0.834000       15.9994           0
     18857 TIP3     1686     TIP3     H1       HT       0.417000       1.00800           0
     18858 TIP3     1686     TIP3     H2       HT       0.417000       1.00800           0
     18859 TIP3     1687     TIP3     OH2      OT      -0.834000       15.9994           0
     18860 TIP3     1687     TIP3     H1       HT       0.417000       1.00800           0
     18861 TIP3     1687     TIP3     H2       HT       0.417000       1.00800           0
     18862 TIP3     1688     TIP3     OH2      OT      -0.834000       15.9994           0
     18863 TIP3     1688     TIP3     H1       HT       0.417000       1.00800           0
     18864 TIP3     1688     TIP3     H2       HT       0.417000       1.00800           0
     18865 TIP3     1689     TIP3     OH2      OT      -0.834000       15.9994           0
     18866 TIP3     1689     TIP3     H1       HT       0.417000       1.00800           0
     18867 TIP3     1689     TIP3     H2       HT       0.417000       1.00800           0
     18868 TIP3     1690     TIP3     OH2      OT      -0.834000       15.9994           0
     18869 TIP3     1690     TIP3     H1       HT       0.417000       1.00800           0
     18870 TIP3     1690     TIP3     H2       HT       0.417000       1.00800           0
     18871 TIP3     1691     TIP3     OH2      OT      -0.834000       15.9994           0
     18872 TIP3     1691     TIP3     H1       HT       0.417000       1.00800           0
     18873 TIP3     1691     TIP3     H2       HT       0.417000       1.00800           0
     18874 TIP3     1692     TIP3     OH2      OT      -0.834000       15.9994           0
     18875 TIP3     1692     TIP3     H1       HT       0.417000       1.00800           0
     18876 TIP3     1692     TIP3     H2       HT       0.417000       1.00800           0
     18877 TIP3     1693     TIP3     OH2      OT      -0.834000       15.9994           0
     18878 TIP3     1693     TIP3     H1       HT       0.417000       1.00800           0
     18879 TIP3     1693     TIP3     H2       HT       0.417000       1.00800           0
     18880 TIP3     1694     TIP3     OH2      OT      -0.834000       15.9994           0
     18881 TIP3     1694     TIP3     H1       HT       0.417000       1.00800           0
     18882 TIP3     1694     TIP3     H2       HT       0.417000       1.00800           0
     18883 TIP3     1695     TIP3     OH2      OT      -0.834000       15.9994           0
     18884 TIP3     1695     TIP3     H1       HT       0.417000       1.00800           0
     18885 TIP3     1695     TIP3     H2       HT       0.417000       1.00800           0
     18886 TIP3     1696     TIP3     OH2      OT      -0.834000       15.9994           0
     18887 TIP3     1696     TIP3     H1       HT       0.417000       1.00800           0
     18888 TIP3     1696     TIP3     H2       HT       0.417000       1.00800           0
     18889 TIP3     1697     TIP3     OH2      OT      -0.834000       15.9994           0
     18890 TIP3     1697     TIP3     H1       HT       0.417000       1.00800           0
     18891 TIP3     1697     TIP3     H2       HT       0.417000       1.00800           0
     18892 TIP3     1698     TIP3     OH2      OT      -0.834000       15.9994           0
     18893 TIP3     1698     TIP3     H1       HT       0.417000       1.00800           0
     18894 TIP3     1698     TIP3     H2       HT       0.417000       1.00800           0
     18895 TIP3     1699     TIP3     OH2      OT      -0.834000       15.9994           0
     18896 TIP3     1699     TIP3     H1       HT       0.417000       1.00800           0
     18897 TIP3     1699     TIP3     H2       HT       0.417000       1.00800           0
     18898 TIP3     1700     TIP3     OH2      OT      -0.834000       15.9994           0
     18899 TIP3     1700     TIP3     H1       HT       0.417000       1.00800           0
     18900 TIP3     1700     TIP3     H2       HT       0.417000       1.00800           0
     18901 TIP3     1701     TIP3     OH2      OT      -0.834000       15.9994           0
     18902 TIP3     1701     TIP3     H1       HT       0.417000       1.00800           0
     18903 TIP3     1701     TIP3     H2       HT       0.417000       1.00800           0
     18904 TIP3     1702     TIP3     OH2      OT      -0.834000       15.9994           0
     18905 TIP3     1702     TIP3     H1       HT       0.417000       1.00800           0
     18906 TIP3     1702     TIP3     H2       HT       0.417000       1.00800           0
     18907 TIP3     1703     TIP3     OH2      OT      -0.834000       15.9994           0
     18908 TIP3     1703     TIP3     H1       HT       0.417000       1.00800           0
     18909 TIP3     1703     TIP3     H2       HT       0.417000       1.00800           0
     18910 TIP3     1704     TIP3     OH2      OT      -0.834000       15.9994           0
     18911 TIP3     1704     TIP3     H1       HT       0.417000       1.00800           0
     18912 TIP3     1704     TIP3     H2       HT       0.417000       1.00800           0
     18913 TIP3     1705     TIP3     OH2      OT      -0.834000       15.9994           0
     18914 TIP3     1705     TIP3     H1       HT       0.417000       1.00800           0
     18915 TIP3     1705     TIP3     H2       HT       0.417000       1.00800           0
     18916 TIP3     1706     TIP3     OH2      OT      -0.834000       15.9994           0
     18917 TIP3     1706     TIP3     H1       HT       0.417000       1.00800           0
     18918 TIP3     1706     TIP3     H2       HT       0.417000       1.00800           0
     18919 TIP3     1707     TIP3     OH2      OT      -0.834000       15.9994           0
     18920 TIP3     1707     TIP3     H1       HT       0.417000       1.00800           0
     18921 TIP3     1707     TIP3     H2       HT       0.417000       1.00800           0
     18922 TIP3     1708     TIP3     OH2      OT      -0.834000       15.9994           0
     18923 TIP3     1708     TIP3     H1       HT       0.417000       1.00800           0
     18924 TIP3     1708     TIP3     H2       HT       0.417000       1.00800           0
     18925 TIP3     1709     TIP3     OH2      OT      -0.834000       15.9994           0
     18926 TIP3     1709     TIP3     H1       HT       0.417000       1.00800           0
     18927 TIP3     1709     TIP3     H2       HT       0.417000       1.00800           0
     18928 TIP3     1710     TIP3     OH2      OT      -0.834000       15.9994           0
     18929 TIP3     1710     TIP3     H1       HT       0.417000       1.00800           0
     18930 TIP3     1710     TIP3     H2       HT       0.417000       1.00800           0
     18931 TIP3     1711     TIP3     OH2      OT      -0.834000       15.9994           0
     18932 TIP3     1711     TIP3     H1       HT       0.417000       1.00800           0
     18933 TIP3     1711     TIP3     H2       HT       0.417000       1.00800           0
     18934 TIP3     1712     TIP3     OH2      OT      -0.834000       15.9994           0
     18935 TIP3     1712     TIP3     H1       HT       0.417000       1.00800           0
     18936 TIP3     1712     TIP3     H2       HT       0.417000       1.00800           0
     18937 TIP3     1713     TIP3     OH2      OT      -0.834000       15.9994           0
     18938 TIP3     1713     TIP3     H1       HT       0.417000       1.00800           0
     18939 TIP3     1713     TIP3     H2       HT       0.417000       1.00800           0
     18940 TIP3     1714     TIP3     OH2      OT      -0.834000       15.9994           0
     18941 TIP3     1714     TIP3     H1       HT       0.417000       1.00800           0
     18942 TIP3     1714     TIP3     H2       HT       0.417000       1.00800           0
     18943 TIP3     1715     TIP3     OH2      OT      -0.834000       15.9994           0
     18944 TIP3     1715     TIP3     H1       HT       0.417000       1.00800           0
     18945 TIP3     1715     TIP3     H2       HT       0.417000       1.00800           0
     18946 TIP3     1716     TIP3     OH2      OT      -0.834000       15.9994           0
     18947 TIP3     1716     TIP3     H1       HT       0.417000       1.00800           0
     18948 TIP3     1716     TIP3     H2       HT       0.417000       1.00800           0
     18949 TIP3     1717     TIP3     OH2      OT      -0.834000       15.9994           0
     18950 TIP3     1717     TIP3     H1       HT       0.417000       1.00800           0
     18951 TIP3     1717     TIP3     H2       HT       0.417000       1.00800           0
     18952 TIP3     1718     TIP3     OH2      OT      -0.834000       15.9994           0
     18953 TIP3     1718     TIP3     H1       HT       0.417000       1.00800           0
     18954 TIP3     1718     TIP3     H2       HT       0.417000       1.00800           0
     18955 TIP3     1719     TIP3     OH2      OT      -0.834000       15.9994           0
     18956 TIP3     1719     TIP3     H1       HT       0.417000       1.00800           0
     18957 TIP3     1719     TIP3     H2       HT       0.417000       1.00800           0
     18958 TIP3     1720     TIP3     OH2      OT      -0.834000       15.9994           0
     18959 TIP3     1720     TIP3     H1       HT       0.417000       1.00800           0
     18960 TIP3     1720     TIP3     H2       HT       0.417000       1.00800           0
     18961 TIP3     1721     TIP3     OH2      OT      -0.834000       15.9994           0
     18962 TIP3     1721     TIP3     H1       HT       0.417000       1.00800           0
     18963 TIP3     1721     TIP3     H2       HT       0.417000       1.00800           0
     18964 TIP3     1722     TIP3     OH2      OT      -0.834000       15.9994           0
     18965 TIP3     1722     TIP3     H1       HT       0.417000       1.00800           0
     18966 TIP3     1722     TIP3     H2       HT       0.417000       1.00800           0
     18967 TIP3     1723     TIP3     OH2      OT      -0.834000       15.9994           0
     18968 TIP3     1723     TIP3     H1       HT       0.417000       1.00800           0
     18969 TIP3     1723     TIP3     H2       HT       0.417000       1.00800           0
     18970 TIP3     1724     TIP3     OH2      OT      -0.834000       15.9994           0
     18971 TIP3     1724     TIP3     H1       HT       0.417000       1.00800           0
     18972 TIP3     1724     TIP3     H2       HT       0.417000       1.00800           0
     18973 TIP3     1725     TIP3     OH2      OT      -0.834000       15.9994           0
     18974 TIP3     1725     TIP3     H1       HT       0.417000       1.00800           0
     18975 TIP3     1725     TIP3     H2       HT       0.417000       1.00800           0
     18976 TIP3     1726     TIP3     OH2      OT      -0.834000       15.9994           0
     18977 TIP3     1726     TIP3     H1       HT       0.417000       1.00800           0
     18978 TIP3     1726     TIP3     H2       HT       0.417000       1.00800           0
     18979 TIP3     1727     TIP3     OH2      OT      -0.834000       15.9994           0
     18980 TIP3     1727     TIP3     H1       HT       0.417000       1.00800           0
     18981 TIP3     1727     TIP3     H2       HT       0.417000       1.00800           0
     18982 TIP3     1728     TIP3     OH2      OT      -0.834000       15.9994           0
     18983 TIP3     1728     TIP3     H1       HT       0.417000       1.00800           0
     18984 TIP3     1728     TIP3     H2       HT       0.417000       1.00800           0
     18985 TIP3     1729     TIP3     OH2      OT      -0.834000       15.9994           0
     18986 TIP3     1729     TIP3     H1       HT       0.417000       1.00800           0
     18987 TIP3     1729     TIP3     H2       HT       0.417000       1.00800           0
     18988 TIP3     1730     TIP3     OH2      OT      -0.834000       15.9994           0
     18989 TIP3     1730     TIP3     H1       HT       0.417000       1.00800           0
     18990 TIP3     1730     TIP3     H2       HT       0.417000       1.00800           0
     18991 TIP3     1731     TIP3     OH2      OT      -0.834000       15.9994           0
     18992 TIP3     1731     TIP3     H1       HT       0.417000       1.00800           0
     18993 TIP3     1731     TIP3     H2       HT       0.417000       1.00800           0
     18994 TIP3     1732     TIP3     OH2      OT      -0.834000       15.9994           0
     18995 TIP3     1732     TIP3     H1       HT       0.417000       1.00800           0
     18996 TIP3     1732     TIP3     H2       HT       0.417000       1.00800           0
     18997 TIP3     1733     TIP3     OH2      OT      -0.834000       15.9994           0
     18998 TIP3     1733     TIP3     H1       HT       0.417000       1.00800           0
     18999 TIP3     1733     TIP3     H2       HT       0.417000       1.00800           0
     19000 TIP3     1734     TIP3     OH2      OT      -0.834000       15.9994           0
     19001 TIP3     1734     TIP3     H1       HT       0.417000       1.00800           0
     19002 TIP3     1734     TIP3     H2       HT       0.417000       1.00800           0
     19003 TIP3     1735     TIP3     OH2      OT      -0.834000       15.9994           0
     19004 TIP3     1735     TIP3     H1       HT       0.417000       1.00800           0
     19005 TIP3     1735     TIP3     H2       HT       0.417000       1.00800           0
     19006 TIP3     1736     TIP3     OH2      OT      -0.834000       15.9994           0
     19007 TIP3     1736     TIP3     H1       HT       0.417000       1.00800           0
     19008 TIP3     1736     TIP3     H2       HT       0.417000       1.00800           0
     19009 TIP3     1737     TIP3     OH2      OT      -0.834000       15.9994           0
     19010 TIP3     1737     TIP3     H1       HT       0.417000       1.00800           0
     19011 TIP3     1737     TIP3     H2       HT       0.417000       1.00800           0
     19012 TIP3     1738     TIP3     OH2      OT      -0.834000       15.9994           0
     19013 TIP3     1738     TIP3     H1       HT       0.417000       1.00800           0
     19014 TIP3     1738     TIP3     H2       HT       0.417000       1.00800           0
     19015 TIP3     1739     TIP3     OH2      OT      -0.834000       15.9994           0
     19016 TIP3     1739     TIP3     H1       HT       0.417000       1.00800           0
     19017 TIP3     1739     TIP3     H2       HT       0.417000       1.00800           0
     19018 TIP3     1740     TIP3     OH2      OT      -0.834000       15.9994           0
     19019 TIP3     1740     TIP3     H1       HT       0.417000       1.00800           0
     19020 TIP3     1740     TIP3     H2       HT       0.417000       1.00800           0
     19021 TIP3     1741     TIP3     OH2      OT      -0.834000       15.9994           0
     19022 TIP3     1741     TIP3     H1       HT       0.417000       1.00800           0
     19023 TIP3     1741     TIP3     H2       HT       0.417000       1.00800           0
     19024 TIP3     1742     TIP3     OH2      OT      -0.834000       15.9994           0
     19025 TIP3     1742     TIP3     H1       HT       0.417000       1.00800           0
     19026 TIP3     1742     TIP3     H2       HT       0.417000       1.00800           0
     19027 TIP3     1743     TIP3     OH2      OT      -0.834000       15.9994           0
     19028 TIP3     1743     TIP3     H1       HT       0.417000       1.00800           0
     19029 TIP3     1743     TIP3     H2       HT       0.417000       1.00800           0
     19030 TIP3     1744     TIP3     OH2      OT      -0.834000       15.9994           0
     19031 TIP3     1744     TIP3     H1       HT       0.417000       1.00800           0
     19032 TIP3     1744     TIP3     H2       HT       0.417000       1.00800           0
     19033 TIP3     1745     TIP3     OH2      OT      -0.834000       15.9994           0
     19034 TIP3     1745     TIP3     H1       HT       0.417000       1.00800           0
     19035 TIP3     1745     TIP3     H2       HT       0.417000       1.00800           0
     19036 TIP3     1746     TIP3     OH2      OT      -0.834000       15.9994           0
     19037 TIP3     1746     TIP3     H1       HT       0.417000       1.00800           0
     19038 TIP3     1746     TIP3     H2       HT       0.417000       1.00800           0
     19039 TIP3     1747     TIP3     OH2      OT      -0.834000       15.9994           0
     19040 TIP3     1747     TIP3     H1       HT       0.417000       1.00800           0
     19041 TIP3     1747     TIP3     H2       HT       0.417000       1.00800           0
     19042 TIP3     1748     TIP3     OH2      OT      -0.834000       15.9994           0
     19043 TIP3     1748     TIP3     H1       HT       0.417000       1.00800           0
     19044 TIP3     1748     TIP3     H2       HT       0.417000       1.00800           0
     19045 TIP3     1749     TIP3     OH2      OT      -0.834000       15.9994           0
     19046 TIP3     1749     TIP3     H1       HT       0.417000       1.00800           0
     19047 TIP3     1749     TIP3     H2       HT       0.417000       1.00800           0
     19048 TIP3     1750     TIP3     OH2      OT      -0.834000       15.9994           0
     19049 TIP3     1750     TIP3     H1       HT       0.417000       1.00800           0
     19050 TIP3     1750     TIP3     H2       HT       0.417000       1.00800           0
     19051 TIP3     1751     TIP3     OH2      OT      -0.834000       15.9994           0
     19052 TIP3     1751     TIP3     H1       HT       0.417000       1.00800           0
     19053 TIP3     1751     TIP3     H2       HT       0.417000       1.00800           0
     19054 TIP3     1752     TIP3     OH2      OT      -0.834000       15.9994           0
     19055 TIP3     1752     TIP3     H1       HT       0.417000       1.00800           0
     19056 TIP3     1752     TIP3     H2       HT       0.417000       1.00800           0
     19057 TIP3     1753     TIP3     OH2      OT      -0.834000       15.9994           0
     19058 TIP3     1753     TIP3     H1       HT       0.417000       1.00800           0
     19059 TIP3     1753     TIP3     H2       HT       0.417000       1.00800           0
     19060 TIP3     1754     TIP3     OH2      OT      -0.834000       15.9994           0
     19061 TIP3     1754     TIP3     H1       HT       0.417000       1.00800           0
     19062 TIP3     1754     TIP3     H2       HT       0.417000       1.00800           0
     19063 TIP3     1755     TIP3     OH2      OT      -0.834000       15.9994           0
     19064 TIP3     1755     TIP3     H1       HT       0.417000       1.00800           0
     19065 TIP3     1755     TIP3     H2       HT       0.417000       1.00800           0
     19066 TIP3     1756     TIP3     OH2      OT      -0.834000       15.9994           0
     19067 TIP3     1756     TIP3     H1       HT       0.417000       1.00800           0
     19068 TIP3     1756     TIP3     H2       HT       0.417000       1.00800           0
     19069 TIP3     1757     TIP3     OH2      OT      -0.834000       15.9994           0
     19070 TIP3     1757     TIP3     H1       HT       0.417000       1.00800           0
     19071 TIP3     1757     TIP3     H2       HT       0.417000       1.00800           0
     19072 TIP3     1758     TIP3     OH2      OT      -0.834000       15.9994           0
     19073 TIP3     1758     TIP3     H1       HT       0.417000       1.00800           0
     19074 TIP3     1758     TIP3     H2       HT       0.417000       1.00800           0
     19075 TIP3     1759     TIP3     OH2      OT      -0.834000       15.9994           0
     19076 TIP3     1759     TIP3     H1       HT       0.417000       1.00800           0
     19077 TIP3     1759     TIP3     H2       HT       0.417000       1.00800           0
     19078 TIP3     1760     TIP3     OH2      OT      -0.834000       15.9994           0
     19079 TIP3     1760     TIP3     H1       HT       0.417000       1.00800           0
     19080 TIP3     1760     TIP3     H2       HT       0.417000       1.00800           0
     19081 TIP3     1761     TIP3     OH2      OT      -0.834000       15.9994           0
     19082 TIP3     1761     TIP3     H1       HT       0.417000       1.00800           0
     19083 TIP3     1761     TIP3     H2       HT       0.417000       1.00800           0
     19084 TIP3     1762     TIP3     OH2      OT      -0.834000       15.9994           0
     19085 TIP3     1762     TIP3     H1       HT       0.417000       1.00800           0
     19086 TIP3     1762     TIP3     H2       HT       0.417000       1.00800           0
     19087 TIP3     1763     TIP3     OH2      OT      -0.834000       15.9994           0
     19088 TIP3     1763     TIP3     H1       HT       0.417000       1.00800           0
     19089 TIP3     1763     TIP3     H2       HT       0.417000       1.00800           0
     19090 TIP3     1764     TIP3     OH2      OT      -0.834000       15.9994           0
     19091 TIP3     1764     TIP3     H1       HT       0.417000       1.00800           0
     19092 TIP3     1764     TIP3     H2       HT       0.417000       1.00800           0
     19093 TIP3     1765     TIP3     OH2      OT      -0.834000       15.9994           0
     19094 TIP3     1765     TIP3     H1       HT       0.417000       1.00800           0
     19095 TIP3     1765     TIP3     H2       HT       0.417000       1.00800           0
     19096 TIP3     1766     TIP3     OH2      OT      -0.834000       15.9994           0
     19097 TIP3     1766     TIP3     H1       HT       0.417000       1.00800           0
     19098 TIP3     1766     TIP3     H2       HT       0.417000       1.00800           0
     19099 TIP3     1767     TIP3     OH2      OT      -0.834000       15.9994           0
     19100 TIP3     1767     TIP3     H1       HT       0.417000       1.00800           0
     19101 TIP3     1767     TIP3     H2       HT       0.417000       1.00800           0
     19102 TIP3     1768     TIP3     OH2      OT      -0.834000       15.9994           0
     19103 TIP3     1768     TIP3     H1       HT       0.417000       1.00800           0
     19104 TIP3     1768     TIP3     H2       HT       0.417000       1.00800           0
     19105 TIP3     1769     TIP3     OH2      OT      -0.834000       15.9994           0
     19106 TIP3     1769     TIP3     H1       HT       0.417000       1.00800           0
     19107 TIP3     1769     TIP3     H2       HT       0.417000       1.00800           0
     19108 TIP3     1770     TIP3     OH2      OT      -0.834000       15.9994           0
     19109 TIP3     1770     TIP3     H1       HT       0.417000       1.00800           0
     19110 TIP3     1770     TIP3     H2       HT       0.417000       1.00800           0
     19111 TIP3     1771     TIP3     OH2      OT      -0.834000       15.9994           0
     19112 TIP3     1771     TIP3     H1       HT       0.417000       1.00800           0
     19113 TIP3     1771     TIP3     H2       HT       0.417000       1.00800           0
     19114 TIP3     1772     TIP3     OH2      OT      -0.834000       15.9994           0
     19115 TIP3     1772     TIP3     H1       HT       0.417000       1.00800           0
     19116 TIP3     1772     TIP3     H2       HT       0.417000       1.00800           0
     19117 TIP3     1773     TIP3     OH2      OT      -0.834000       15.9994           0
     19118 TIP3     1773     TIP3     H1       HT       0.417000       1.00800           0
     19119 TIP3     1773     TIP3     H2       HT       0.417000       1.00800           0
     19120 TIP3     1774     TIP3     OH2      OT      -0.834000       15.9994           0
     19121 TIP3     1774     TIP3     H1       HT       0.417000       1.00800           0
     19122 TIP3     1774     TIP3     H2       HT       0.417000       1.00800           0
     19123 TIP3     1775     TIP3     OH2      OT      -0.834000       15.9994           0
     19124 TIP3     1775     TIP3     H1       HT       0.417000       1.00800           0
     19125 TIP3     1775     TIP3     H2       HT       0.417000       1.00800           0
     19126 TIP3     1776     TIP3     OH2      OT      -0.834000       15.9994           0
     19127 TIP3     1776     TIP3     H1       HT       0.417000       1.00800           0
     19128 TIP3     1776     TIP3     H2       HT       0.417000       1.00800           0
     19129 TIP3     1777     TIP3     OH2      OT      -0.834000       15.9994           0
     19130 TIP3     1777     TIP3     H1       HT       0.417000       1.00800           0
     19131 TIP3     1777     TIP3     H2       HT       0.417000       1.00800           0
     19132 TIP3     1778     TIP3     OH2      OT      -0.834000       15.9994           0
     19133 TIP3     1778     TIP3     H1       HT       0.417000       1.00800           0
     19134 TIP3     1778     TIP3     H2       HT       0.417000       1.00800           0
     19135 TIP3     1779     TIP3     OH2      OT      -0.834000       15.9994           0
     19136 TIP3     1779     TIP3     H1       HT       0.417000       1.00800           0
     19137 TIP3     1779     TIP3     H2       HT       0.417000       1.00800           0
     19138 TIP3     1780     TIP3     OH2      OT      -0.834000       15.9994           0
     19139 TIP3     1780     TIP3     H1       HT       0.417000       1.00800           0
     19140 TIP3     1780     TIP3     H2       HT       0.417000       1.00800           0
     19141 TIP3     1781     TIP3     OH2      OT      -0.834000       15.9994           0
     19142 TIP3     1781     TIP3     H1       HT       0.417000       1.00800           0
     19143 TIP3     1781     TIP3     H2       HT       0.417000       1.00800           0
     19144 TIP3     1782     TIP3     OH2      OT      -0.834000       15.9994           0
     19145 TIP3     1782     TIP3     H1       HT       0.417000       1.00800           0
     19146 TIP3     1782     TIP3     H2       HT       0.417000       1.00800           0
     19147 TIP3     1783     TIP3     OH2      OT      -0.834000       15.9994           0
     19148 TIP3     1783     TIP3     H1       HT       0.417000       1.00800           0
     19149 TIP3     1783     TIP3     H2       HT       0.417000       1.00800           0
     19150 TIP3     1784     TIP3     OH2      OT      -0.834000       15.9994           0
     19151 TIP3     1784     TIP3     H1       HT       0.417000       1.00800           0
     19152 TIP3     1784     TIP3     H2       HT       0.417000       1.00800           0
     19153 TIP3     1785     TIP3     OH2      OT      -0.834000       15.9994           0
     19154 TIP3     1785     TIP3     H1       HT       0.417000       1.00800           0
     19155 TIP3     1785     TIP3     H2       HT       0.417000       1.00800           0
     19156 TIP3     1786     TIP3     OH2      OT      -0.834000       15.9994           0
     19157 TIP3     1786     TIP3     H1       HT       0.417000       1.00800           0
     19158 TIP3     1786     TIP3     H2       HT       0.417000       1.00800           0
     19159 TIP3     1787     TIP3     OH2      OT      -0.834000       15.9994           0
     19160 TIP3     1787     TIP3     H1       HT       0.417000       1.00800           0
     19161 TIP3     1787     TIP3     H2       HT       0.417000       1.00800           0
     19162 TIP3     1788     TIP3     OH2      OT      -0.834000       15.9994           0
     19163 TIP3     1788     TIP3     H1       HT       0.417000       1.00800           0
     19164 TIP3     1788     TIP3     H2       HT       0.417000       1.00800           0
     19165 TIP3     1789     TIP3     OH2      OT      -0.834000       15.9994           0
     19166 TIP3     1789     TIP3     H1       HT       0.417000       1.00800           0
     19167 TIP3     1789     TIP3     H2       HT       0.417000       1.00800           0
     19168 TIP3     1790     TIP3     OH2      OT      -0.834000       15.9994           0
     19169 TIP3     1790     TIP3     H1       HT       0.417000       1.00800           0
     19170 TIP3     1790     TIP3     H2       HT       0.417000       1.00800           0
     19171 TIP3     1791     TIP3     OH2      OT      -0.834000       15.9994           0
     19172 TIP3     1791     TIP3     H1       HT       0.417000       1.00800           0
     19173 TIP3     1791     TIP3     H2       HT       0.417000       1.00800           0
     19174 TIP3     1792     TIP3     OH2      OT      -0.834000       15.9994           0
     19175 TIP3     1792     TIP3     H1       HT       0.417000       1.00800           0
     19176 TIP3     1792     TIP3     H2       HT       0.417000       1.00800           0
     19177 TIP3     1793     TIP3     OH2      OT      -0.834000       15.9994           0
     19178 TIP3     1793     TIP3     H1       HT       0.417000       1.00800           0
     19179 TIP3     1793     TIP3     H2       HT       0.417000       1.00800           0
     19180 TIP3     1794     TIP3     OH2      OT      -0.834000       15.9994           0
     19181 TIP3     1794     TIP3     H1       HT       0.417000       1.00800           0
     19182 TIP3     1794     TIP3     H2       HT       0.417000       1.00800           0
     19183 TIP3     1795     TIP3     OH2      OT      -0.834000       15.9994           0
     19184 TIP3     1795     TIP3     H1       HT       0.417000       1.00800           0
     19185 TIP3     1795     TIP3     H2       HT       0.417000       1.00800           0
     19186 TIP3     1796     TIP3     OH2      OT      -0.834000       15.9994           0
     19187 TIP3     1796     TIP3     H1       HT       0.417000       1.00800           0
     19188 TIP3     1796     TIP3     H2       HT       0.417000       1.00800           0
     19189 TIP3     1797     TIP3     OH2      OT      -0.834000       15.9994           0
     19190 TIP3     1797     TIP3     H1       HT       0.417000       1.00800           0
     19191 TIP3     1797     TIP3     H2       HT       0.417000       1.00800           0
     19192 TIP3     1798     TIP3     OH2      OT      -0.834000       15.9994           0
     19193 TIP3     1798     TIP3     H1       HT       0.417000       1.00800           0
     19194 TIP3     1798     TIP3     H2       HT       0.417000       1.00800           0
     19195 TIP3     1799     TIP3     OH2      OT      -0.834000       15.9994           0
     19196 TIP3     1799     TIP3     H1       HT       0.417000       1.00800           0
     19197 TIP3     1799     TIP3     H2       HT       0.417000       1.00800           0
     19198 TIP3     1800     TIP3     OH2      OT      -0.834000       15.9994           0
     19199 TIP3     1800     TIP3     H1       HT       0.417000       1.00800           0
     19200 TIP3     1800     TIP3     H2       HT       0.417000       1.00800           0
     19201 TIP3     1801     TIP3     OH2      OT      -0.834000       15.9994           0
     19202 TIP3     1801     TIP3     H1       HT       0.417000       1.00800           0
     19203 TIP3     1801     TIP3     H2       HT       0.417000       1.00800           0
     19204 TIP3     1802     TIP3     OH2      OT      -0.834000       15.9994           0
     19205 TIP3     1802     TIP3     H1       HT       0.417000       1.00800           0
     19206 TIP3     1802     TIP3     H2       HT       0.417000       1.00800           0
     19207 TIP3     1803     TIP3     OH2      OT      -0.834000       15.9994           0
     19208 TIP3     1803     TIP3     H1       HT       0.417000       1.00800           0
     19209 TIP3     1803     TIP3     H2       HT       0.417000       1.00800           0
     19210 TIP3     1804     TIP3     OH2      OT      -0.834000       15.9994           0
     19211 TIP3     1804     TIP3     H1       HT       0.417000       1.00800           0
     19212 TIP3     1804     TIP3     H2       HT       0.417000       1.00800           0
     19213 TIP3     1805     TIP3     OH2      OT      -0.834000       15.9994           0
     19214 TIP3     1805     TIP3     H1       HT       0.417000       1.00800           0
     19215 TIP3     1805     TIP3     H2       HT       0.417000       1.00800           0
     19216 TIP3     1806     TIP3     OH2      OT      -0.834000       15.9994           0
     19217 TIP3     1806     TIP3     H1       HT       0.417000       1.00800           0
     19218 TIP3     1806     TIP3     H2       HT       0.417000       1.00800           0
     19219 TIP3     1807     TIP3     OH2      OT      -0.834000       15.9994           0
     19220 TIP3     1807     TIP3     H1       HT       0.417000       1.00800           0
     19221 TIP3     1807     TIP3     H2       HT       0.417000       1.00800           0
     19222 TIP3     1808     TIP3     OH2      OT      -0.834000       15.9994           0
     19223 TIP3     1808     TIP3     H1       HT       0.417000       1.00800           0
     19224 TIP3     1808     TIP3     H2       HT       0.417000       1.00800           0
     19225 TIP3     1809     TIP3     OH2      OT      -0.834000       15.9994           0
     19226 TIP3     1809     TIP3     H1       HT       0.417000       1.00800           0
     19227 TIP3     1809     TIP3     H2       HT       0.417000       1.00800           0
     19228 TIP3     1810     TIP3     OH2      OT      -0.834000       15.9994           0
     19229 TIP3     1810     TIP3     H1       HT       0.417000       1.00800           0
     19230 TIP3     1810     TIP3     H2       HT       0.417000       1.00800           0
     19231 TIP3     1811     TIP3     OH2      OT      -0.834000       15.9994           0
     19232 TIP3     1811     TIP3     H1       HT       0.417000       1.00800           0
     19233 TIP3     1811     TIP3     H2       HT       0.417000       1.00800           0
     19234 TIP3     1812     TIP3     OH2      OT      -0.834000       15.9994           0
     19235 TIP3     1812     TIP3     H1       HT       0.417000       1.00800           0
     19236 TIP3     1812     TIP3     H2       HT       0.417000       1.00800           0
     19237 TIP3     1813     TIP3     OH2      OT      -0.834000       15.9994           0
     19238 TIP3     1813     TIP3     H1       HT       0.417000       1.00800           0
     19239 TIP3     1813     TIP3     H2       HT       0.417000       1.00800           0
     19240 TIP3     1814     TIP3     OH2      OT      -0.834000       15.9994           0
     19241 TIP3     1814     TIP3     H1       HT       0.417000       1.00800           0
     19242 TIP3     1814     TIP3     H2       HT       0.417000       1.00800           0
     19243 TIP3     1815     TIP3     OH2      OT      -0.834000       15.9994           0
     19244 TIP3     1815     TIP3     H1       HT       0.417000       1.00800           0
     19245 TIP3     1815     TIP3     H2       HT       0.417000       1.00800           0
     19246 TIP3     1816     TIP3     OH2      OT      -0.834000       15.9994           0
     19247 TIP3     1816     TIP3     H1       HT       0.417000       1.00800           0
     19248 TIP3     1816     TIP3     H2       HT       0.417000       1.00800           0
     19249 TIP3     1817     TIP3     OH2      OT      -0.834000       15.9994           0
     19250 TIP3     1817     TIP3     H1       HT       0.417000       1.00800           0
     19251 TIP3     1817     TIP3     H2       HT       0.417000       1.00800           0
     19252 TIP3     1818     TIP3     OH2      OT      -0.834000       15.9994           0
     19253 TIP3     1818     TIP3     H1       HT       0.417000       1.00800           0
     19254 TIP3     1818     TIP3     H2       HT       0.417000       1.00800           0
     19255 TIP3     1819     TIP3     OH2      OT      -0.834000       15.9994           0
     19256 TIP3     1819     TIP3     H1       HT       0.417000       1.00800           0
     19257 TIP3     1819     TIP3     H2       HT       0.417000       1.00800           0
     19258 TIP3     1820     TIP3     OH2      OT      -0.834000       15.9994           0
     19259 TIP3     1820     TIP3     H1       HT       0.417000       1.00800           0
     19260 TIP3     1820     TIP3     H2       HT       0.417000       1.00800           0
     19261 TIP3     1821     TIP3     OH2      OT      -0.834000       15.9994           0
     19262 TIP3     1821     TIP3     H1       HT       0.417000       1.00800           0
     19263 TIP3     1821     TIP3     H2       HT       0.417000       1.00800           0
     19264 TIP3     1822     TIP3     OH2      OT      -0.834000       15.9994           0
     19265 TIP3     1822     TIP3     H1       HT       0.417000       1.00800           0
     19266 TIP3     1822     TIP3     H2       HT       0.417000       1.00800           0
     19267 TIP3     1823     TIP3     OH2      OT      -0.834000       15.9994           0
     19268 TIP3     1823     TIP3     H1       HT       0.417000       1.00800           0
     19269 TIP3     1823     TIP3     H2       HT       0.417000       1.00800           0
     19270 TIP3     1824     TIP3     OH2      OT      -0.834000       15.9994           0
     19271 TIP3     1824     TIP3     H1       HT       0.417000       1.00800           0
     19272 TIP3     1824     TIP3     H2       HT       0.417000       1.00800           0
     19273 TIP3     1825     TIP3     OH2      OT      -0.834000       15.9994           0
     19274 TIP3     1825     TIP3     H1       HT       0.417000       1.00800           0
     19275 TIP3     1825     TIP3     H2       HT       0.417000       1.00800           0
     19276 TIP3     1826     TIP3     OH2      OT      -0.834000       15.9994           0
     19277 TIP3     1826     TIP3     H1       HT       0.417000       1.00800           0
     19278 TIP3     1826     TIP3     H2       HT       0.417000       1.00800           0
     19279 TIP3     1827     TIP3     OH2      OT      -0.834000       15.9994           0
     19280 TIP3     1827     TIP3     H1       HT       0.417000       1.00800           0
     19281 TIP3     1827     TIP3     H2       HT       0.417000       1.00800           0
     19282 TIP3     1828     TIP3     OH2      OT      -0.834000       15.9994           0
     19283 TIP3     1828     TIP3     H1       HT       0.417000       1.00800           0
     19284 TIP3     1828     TIP3     H2       HT       0.417000       1.00800           0
     19285 TIP3     1829     TIP3     OH2      OT      -0.834000       15.9994           0
     19286 TIP3     1829     TIP3     H1       HT       0.417000       1.00800           0
     19287 TIP3     1829     TIP3     H2       HT       0.417000       1.00800           0
     19288 TIP3     1830     TIP3     OH2      OT      -0.834000       15.9994           0
     19289 TIP3     1830     TIP3     H1       HT       0.417000       1.00800           0
     19290 TIP3     1830     TIP3     H2       HT       0.417000       1.00800           0
     19291 TIP3     1831     TIP3     OH2      OT      -0.834000       15.9994           0
     19292 TIP3     1831     TIP3     H1       HT       0.417000       1.00800           0
     19293 TIP3     1831     TIP3     H2       HT       0.417000       1.00800           0
     19294 TIP3     1832     TIP3     OH2      OT      -0.834000       15.9994           0
     19295 TIP3     1832     TIP3     H1       HT       0.417000       1.00800           0
     19296 TIP3     1832     TIP3     H2       HT       0.417000       1.00800           0
     19297 TIP3     1833     TIP3     OH2      OT      -0.834000       15.9994           0
     19298 TIP3     1833     TIP3     H1       HT       0.417000       1.00800           0
     19299 TIP3     1833     TIP3     H2       HT       0.417000       1.00800           0
     19300 TIP3     1834     TIP3     OH2      OT      -0.834000       15.9994           0
     19301 TIP3     1834     TIP3     H1       HT       0.417000       1.00800           0
     19302 TIP3     1834     TIP3     H2       HT       0.417000       1.00800           0
     19303 TIP3     1835     TIP3     OH2      OT      -0.834000       15.9994           0
     19304 TIP3     1835     TIP3     H1       HT       0.417000       1.00800           0
     19305 TIP3     1835     TIP3     H2       HT       0.417000       1.00800           0
     19306 TIP3     1836     TIP3     OH2      OT      -0.834000       15.9994           0
     19307 TIP3     1836     TIP3     H1       HT       0.417000       1.00800           0
     19308 TIP3     1836     TIP3     H2       HT       0.417000       1.00800           0
     19309 TIP3     1837     TIP3     OH2      OT      -0.834000       15.9994           0
     19310 TIP3     1837     TIP3     H1       HT       0.417000       1.00800           0
     19311 TIP3     1837     TIP3     H2       HT       0.417000       1.00800           0
     19312 TIP3     1838     TIP3     OH2      OT      -0.834000       15.9994           0
     19313 TIP3     1838     TIP3     H1       HT       0.417000       1.00800           0
     19314 TIP3     1838     TIP3     H2       HT       0.417000       1.00800           0
     19315 TIP3     1839     TIP3     OH2      OT      -0.834000       15.9994           0
     19316 TIP3     1839     TIP3     H1       HT       0.417000       1.00800           0
     19317 TIP3     1839     TIP3     H2       HT       0.417000       1.00800           0
     19318 TIP3     1840     TIP3     OH2      OT      -0.834000       15.9994           0
     19319 TIP3     1840     TIP3     H1       HT       0.417000       1.00800           0
     19320 TIP3     1840     TIP3     H2       HT       0.417000       1.00800           0
     19321 TIP3     1841     TIP3     OH2      OT      -0.834000       15.9994           0
     19322 TIP3     1841     TIP3     H1       HT       0.417000       1.00800           0
     19323 TIP3     1841     TIP3     H2       HT       0.417000       1.00800           0
     19324 TIP3     1842     TIP3     OH2      OT      -0.834000       15.9994           0
     19325 TIP3     1842     TIP3     H1       HT       0.417000       1.00800           0
     19326 TIP3     1842     TIP3     H2       HT       0.417000       1.00800           0
     19327 TIP3     1843     TIP3     OH2      OT      -0.834000       15.9994           0
     19328 TIP3     1843     TIP3     H1       HT       0.417000       1.00800           0
     19329 TIP3     1843     TIP3     H2       HT       0.417000       1.00800           0
     19330 TIP3     1844     TIP3     OH2      OT      -0.834000       15.9994           0
     19331 TIP3     1844     TIP3     H1       HT       0.417000       1.00800           0
     19332 TIP3     1844     TIP3     H2       HT       0.417000       1.00800           0
     19333 TIP3     1845     TIP3     OH2      OT      -0.834000       15.9994           0
     19334 TIP3     1845     TIP3     H1       HT       0.417000       1.00800           0
     19335 TIP3     1845     TIP3     H2       HT       0.417000       1.00800           0
     19336 TIP3     1846     TIP3     OH2      OT      -0.834000       15.9994           0
     19337 TIP3     1846     TIP3     H1       HT       0.417000       1.00800           0
     19338 TIP3     1846     TIP3     H2       HT       0.417000       1.00800           0
     19339 TIP3     1847     TIP3     OH2      OT      -0.834000       15.9994           0
     19340 TIP3     1847     TIP3     H1       HT       0.417000       1.00800           0
     19341 TIP3     1847     TIP3     H2       HT       0.417000       1.00800           0
     19342 TIP3     1848     TIP3     OH2      OT      -0.834000       15.9994           0
     19343 TIP3     1848     TIP3     H1       HT       0.417000       1.00800           0
     19344 TIP3     1848     TIP3     H2       HT       0.417000       1.00800           0
     19345 TIP3     1849     TIP3     OH2      OT      -0.834000       15.9994           0
     19346 TIP3     1849     TIP3     H1       HT       0.417000       1.00800           0
     19347 TIP3     1849     TIP3     H2       HT       0.417000       1.00800           0
     19348 TIP3     1850     TIP3     OH2      OT      -0.834000       15.9994           0
     19349 TIP3     1850     TIP3     H1       HT       0.417000       1.00800           0
     19350 TIP3     1850     TIP3     H2       HT       0.417000       1.00800           0
     19351 TIP3     1851     TIP3     OH2      OT      -0.834000       15.9994           0
     19352 TIP3     1851     TIP3     H1       HT       0.417000       1.00800           0
     19353 TIP3     1851     TIP3     H2       HT       0.417000       1.00800           0
     19354 TIP3     1852     TIP3     OH2      OT      -0.834000       15.9994           0
     19355 TIP3     1852     TIP3     H1       HT       0.417000       1.00800           0
     19356 TIP3     1852     TIP3     H2       HT       0.417000       1.00800           0
     19357 TIP3     1853     TIP3     OH2      OT      -0.834000       15.9994           0
     19358 TIP3     1853     TIP3     H1       HT       0.417000       1.00800           0
     19359 TIP3     1853     TIP3     H2       HT       0.417000       1.00800           0
     19360 TIP3     1854     TIP3     OH2      OT      -0.834000       15.9994           0
     19361 TIP3     1854     TIP3     H1       HT       0.417000       1.00800           0
     19362 TIP3     1854     TIP3     H2       HT       0.417000       1.00800           0
     19363 TIP3     1855     TIP3     OH2      OT      -0.834000       15.9994           0
     19364 TIP3     1855     TIP3     H1       HT       0.417000       1.00800           0
     19365 TIP3     1855     TIP3     H2       HT       0.417000       1.00800           0
     19366 TIP3     1856     TIP3     OH2      OT      -0.834000       15.9994           0
     19367 TIP3     1856     TIP3     H1       HT       0.417000       1.00800           0
     19368 TIP3     1856     TIP3     H2       HT       0.417000       1.00800           0
     19369 TIP3     1857     TIP3     OH2      OT      -0.834000       15.9994           0
     19370 TIP3     1857     TIP3     H1       HT       0.417000       1.00800           0
     19371 TIP3     1857     TIP3     H2       HT       0.417000       1.00800           0
     19372 TIP3     1858     TIP3     OH2      OT      -0.834000       15.9994           0
     19373 TIP3     1858     TIP3     H1       HT       0.417000       1.00800           0
     19374 TIP3     1858     TIP3     H2       HT       0.417000       1.00800           0
     19375 TIP3     1859     TIP3     OH2      OT      -0.834000       15.9994           0
     19376 TIP3     1859     TIP3     H1       HT       0.417000       1.00800           0
     19377 TIP3     1859     TIP3     H2       HT       0.417000       1.00800           0
     19378 TIP3     1860     TIP3     OH2      OT      -0.834000       15.9994           0
     19379 TIP3     1860     TIP3     H1       HT       0.417000       1.00800           0
     19380 TIP3     1860     TIP3     H2       HT       0.417000       1.00800           0
     19381 TIP3     1861     TIP3     OH2      OT      -0.834000       15.9994           0
     19382 TIP3     1861     TIP3     H1       HT       0.417000       1.00800           0
     19383 TIP3     1861     TIP3     H2       HT       0.417000       1.00800           0
     19384 TIP3     1862     TIP3     OH2      OT      -0.834000       15.9994           0
     19385 TIP3     1862     TIP3     H1       HT       0.417000       1.00800           0
     19386 TIP3     1862     TIP3     H2       HT       0.417000       1.00800           0
     19387 TIP3     1863     TIP3     OH2      OT      -0.834000       15.9994           0
     19388 TIP3     1863     TIP3     H1       HT       0.417000       1.00800           0
     19389 TIP3     1863     TIP3     H2       HT       0.417000       1.00800           0
     19390 TIP3     1864     TIP3     OH2      OT      -0.834000       15.9994           0
     19391 TIP3     1864     TIP3     H1       HT       0.417000       1.00800           0
     19392 TIP3     1864     TIP3     H2       HT       0.417000       1.00800           0
     19393 TIP3     1865     TIP3     OH2      OT      -0.834000       15.9994           0
     19394 TIP3     1865     TIP3     H1       HT       0.417000       1.00800           0
     19395 TIP3     1865     TIP3     H2       HT       0.417000       1.00800           0
     19396 TIP3     1866     TIP3     OH2      OT      -0.834000       15.9994           0
     19397 TIP3     1866     TIP3     H1       HT       0.417000       1.00800           0
     19398 TIP3     1866     TIP3     H2       HT       0.417000       1.00800           0
     19399 TIP3     1867     TIP3     OH2      OT      -0.834000       15.9994           0
     19400 TIP3     1867     TIP3     H1       HT       0.417000       1.00800           0
     19401 TIP3     1867     TIP3     H2       HT       0.417000       1.00800           0
     19402 TIP3     1868     TIP3     OH2      OT      -0.834000       15.9994           0
     19403 TIP3     1868     TIP3     H1       HT       0.417000       1.00800           0
     19404 TIP3     1868     TIP3     H2       HT       0.417000       1.00800           0
     19405 TIP3     1869     TIP3     OH2      OT      -0.834000       15.9994           0
     19406 TIP3     1869     TIP3     H1       HT       0.417000       1.00800           0
     19407 TIP3     1869     TIP3     H2       HT       0.417000       1.00800           0
     19408 TIP3     1870     TIP3     OH2      OT      -0.834000       15.9994           0
     19409 TIP3     1870     TIP3     H1       HT       0.417000       1.00800           0
     19410 TIP3     1870     TIP3     H2       HT       0.417000       1.00800           0
     19411 TIP3     1871     TIP3     OH2      OT      -0.834000       15.9994           0
     19412 TIP3     1871     TIP3     H1       HT       0.417000       1.00800           0
     19413 TIP3     1871     TIP3     H2       HT       0.417000       1.00800           0
     19414 TIP3     1872     TIP3     OH2      OT      -0.834000       15.9994           0
     19415 TIP3     1872     TIP3     H1       HT       0.417000       1.00800           0
     19416 TIP3     1872     TIP3     H2       HT       0.417000       1.00800           0
     19417 TIP3     1873     TIP3     OH2      OT      -0.834000       15.9994           0
     19418 TIP3     1873     TIP3     H1       HT       0.417000       1.00800           0
     19419 TIP3     1873     TIP3     H2       HT       0.417000       1.00800           0
     19420 TIP3     1874     TIP3     OH2      OT      -0.834000       15.9994           0
     19421 TIP3     1874     TIP3     H1       HT       0.417000       1.00800           0
     19422 TIP3     1874     TIP3     H2       HT       0.417000       1.00800           0
     19423 TIP3     1875     TIP3     OH2      OT      -0.834000       15.9994           0
     19424 TIP3     1875     TIP3     H1       HT       0.417000       1.00800           0
     19425 TIP3     1875     TIP3     H2       HT       0.417000       1.00800           0
     19426 TIP3     1876     TIP3     OH2      OT      -0.834000       15.9994           0
     19427 TIP3     1876     TIP3     H1       HT       0.417000       1.00800           0
     19428 TIP3     1876     TIP3     H2       HT       0.417000       1.00800           0
     19429 TIP3     1877     TIP3     OH2      OT      -0.834000       15.9994           0
     19430 TIP3     1877     TIP3     H1       HT       0.417000       1.00800           0
     19431 TIP3     1877     TIP3     H2       HT       0.417000       1.00800           0
     19432 TIP3     1878     TIP3     OH2      OT      -0.834000       15.9994           0
     19433 TIP3     1878     TIP3     H1       HT       0.417000       1.00800           0
     19434 TIP3     1878     TIP3     H2       HT       0.417000       1.00800           0
     19435 TIP3     1879     TIP3     OH2      OT      -0.834000       15.9994           0
     19436 TIP3     1879     TIP3     H1       HT       0.417000       1.00800           0
     19437 TIP3     1879     TIP3     H2       HT       0.417000       1.00800           0
     19438 TIP3     1880     TIP3     OH2      OT      -0.834000       15.9994           0
     19439 TIP3     1880     TIP3     H1       HT       0.417000       1.00800           0
     19440 TIP3     1880     TIP3     H2       HT       0.417000       1.00800           0
     19441 TIP3     1881     TIP3     OH2      OT      -0.834000       15.9994           0
     19442 TIP3     1881     TIP3     H1       HT       0.417000       1.00800           0
     19443 TIP3     1881     TIP3     H2       HT       0.417000       1.00800           0
     19444 TIP3     1882     TIP3     OH2      OT      -0.834000       15.9994           0
     19445 TIP3     1882     TIP3     H1       HT       0.417000       1.00800           0
     19446 TIP3     1882     TIP3     H2       HT       0.417000       1.00800           0
     19447 TIP3     1883     TIP3     OH2      OT      -0.834000       15.9994           0
     19448 TIP3     1883     TIP3     H1       HT       0.417000       1.00800           0
     19449 TIP3     1883     TIP3     H2       HT       0.417000       1.00800           0
     19450 TIP3     1884     TIP3     OH2      OT      -0.834000       15.9994           0
     19451 TIP3     1884     TIP3     H1       HT       0.417000       1.00800           0
     19452 TIP3     1884     TIP3     H2       HT       0.417000       1.00800           0
     19453 TIP3     1885     TIP3     OH2      OT      -0.834000       15.9994           0
     19454 TIP3     1885     TIP3     H1       HT       0.417000       1.00800           0
     19455 TIP3     1885     TIP3     H2       HT       0.417000       1.00800           0
     19456 TIP3     1886     TIP3     OH2      OT      -0.834000       15.9994           0
     19457 TIP3     1886     TIP3     H1       HT       0.417000       1.00800           0
     19458 TIP3     1886     TIP3     H2       HT       0.417000       1.00800           0
     19459 TIP3     1887     TIP3     OH2      OT      -0.834000       15.9994           0
     19460 TIP3     1887     TIP3     H1       HT       0.417000       1.00800           0
     19461 TIP3     1887     TIP3     H2       HT       0.417000       1.00800           0
     19462 TIP3     1888     TIP3     OH2      OT      -0.834000       15.9994           0
     19463 TIP3     1888     TIP3     H1       HT       0.417000       1.00800           0
     19464 TIP3     1888     TIP3     H2       HT       0.417000       1.00800           0
     19465 TIP3     1889     TIP3     OH2      OT      -0.834000       15.9994           0
     19466 TIP3     1889     TIP3     H1       HT       0.417000       1.00800           0
     19467 TIP3     1889     TIP3     H2       HT       0.417000       1.00800           0
     19468 TIP3     1890     TIP3     OH2      OT      -0.834000       15.9994           0
     19469 TIP3     1890     TIP3     H1       HT       0.417000       1.00800           0
     19470 TIP3     1890     TIP3     H2       HT       0.417000       1.00800           0
     19471 TIP3     1891     TIP3     OH2      OT      -0.834000       15.9994           0
     19472 TIP3     1891     TIP3     H1       HT       0.417000       1.00800           0
     19473 TIP3     1891     TIP3     H2       HT       0.417000       1.00800           0
     19474 TIP3     1892     TIP3     OH2      OT      -0.834000       15.9994           0
     19475 TIP3     1892     TIP3     H1       HT       0.417000       1.00800           0
     19476 TIP3     1892     TIP3     H2       HT       0.417000       1.00800           0
     19477 TIP3     1893     TIP3     OH2      OT      -0.834000       15.9994           0
     19478 TIP3     1893     TIP3     H1       HT       0.417000       1.00800           0
     19479 TIP3     1893     TIP3     H2       HT       0.417000       1.00800           0
     19480 TIP3     1894     TIP3     OH2      OT      -0.834000       15.9994           0
     19481 TIP3     1894     TIP3     H1       HT       0.417000       1.00800           0
     19482 TIP3     1894     TIP3     H2       HT       0.417000       1.00800           0
     19483 TIP3     1895     TIP3     OH2      OT      -0.834000       15.9994           0
     19484 TIP3     1895     TIP3     H1       HT       0.417000       1.00800           0
     19485 TIP3     1895     TIP3     H2       HT       0.417000       1.00800           0
     19486 TIP3     1896     TIP3     OH2      OT      -0.834000       15.9994           0
     19487 TIP3     1896     TIP3     H1       HT       0.417000       1.00800           0
     19488 TIP3     1896     TIP3     H2       HT       0.417000       1.00800           0
     19489 TIP3     1897     TIP3     OH2      OT      -0.834000       15.9994           0
     19490 TIP3     1897     TIP3     H1       HT       0.417000       1.00800           0
     19491 TIP3     1897     TIP3     H2       HT       0.417000       1.00800           0
     19492 TIP3     1898     TIP3     OH2      OT      -0.834000       15.9994           0
     19493 TIP3     1898     TIP3     H1       HT       0.417000       1.00800           0
     19494 TIP3     1898     TIP3     H2       HT       0.417000       1.00800           0
     19495 TIP3     1899     TIP3     OH2      OT      -0.834000       15.9994           0
     19496 TIP3     1899     TIP3     H1       HT       0.417000       1.00800           0
     19497 TIP3     1899     TIP3     H2       HT       0.417000       1.00800           0
     19498 TIP3     1900     TIP3     OH2      OT      -0.834000       15.9994           0
     19499 TIP3     1900     TIP3     H1       HT       0.417000       1.00800           0
     19500 TIP3     1900     TIP3     H2       HT       0.417000       1.00800           0
     19501 TIP3     1901     TIP3     OH2      OT      -0.834000       15.9994           0
     19502 TIP3     1901     TIP3     H1       HT       0.417000       1.00800           0
     19503 TIP3     1901     TIP3     H2       HT       0.417000       1.00800           0
     19504 TIP3     1902     TIP3     OH2      OT      -0.834000       15.9994           0
     19505 TIP3     1902     TIP3     H1       HT       0.417000       1.00800           0
     19506 TIP3     1902     TIP3     H2       HT       0.417000       1.00800           0
     19507 TIP3     1903     TIP3     OH2      OT      -0.834000       15.9994           0
     19508 TIP3     1903     TIP3     H1       HT       0.417000       1.00800           0
     19509 TIP3     1903     TIP3     H2       HT       0.417000       1.00800           0
     19510 TIP3     1904     TIP3     OH2      OT      -0.834000       15.9994           0
     19511 TIP3     1904     TIP3     H1       HT       0.417000       1.00800           0
     19512 TIP3     1904     TIP3     H2       HT       0.417000       1.00800           0
     19513 TIP3     1905     TIP3     OH2      OT      -0.834000       15.9994           0
     19514 TIP3     1905     TIP3     H1       HT       0.417000       1.00800           0
     19515 TIP3     1905     TIP3     H2       HT       0.417000       1.00800           0
     19516 TIP3     1906     TIP3     OH2      OT      -0.834000       15.9994           0
     19517 TIP3     1906     TIP3     H1       HT       0.417000       1.00800           0
     19518 TIP3     1906     TIP3     H2       HT       0.417000       1.00800           0
     19519 TIP3     1907     TIP3     OH2      OT      -0.834000       15.9994           0
     19520 TIP3     1907     TIP3     H1       HT       0.417000       1.00800           0
     19521 TIP3     1907     TIP3     H2       HT       0.417000       1.00800           0
     19522 TIP3     1908     TIP3     OH2      OT      -0.834000       15.9994           0
     19523 TIP3     1908     TIP3     H1       HT       0.417000       1.00800           0
     19524 TIP3     1908     TIP3     H2       HT       0.417000       1.00800           0
     19525 TIP3     1909     TIP3     OH2      OT      -0.834000       15.9994           0
     19526 TIP3     1909     TIP3     H1       HT       0.417000       1.00800           0
     19527 TIP3     1909     TIP3     H2       HT       0.417000       1.00800           0
     19528 TIP3     1910     TIP3     OH2      OT      -0.834000       15.9994           0
     19529 TIP3     1910     TIP3     H1       HT       0.417000       1.00800           0
     19530 TIP3     1910     TIP3     H2       HT       0.417000       1.00800           0
     19531 TIP3     1911     TIP3     OH2      OT      -0.834000       15.9994           0
     19532 TIP3     1911     TIP3     H1       HT       0.417000       1.00800           0
     19533 TIP3     1911     TIP3     H2       HT       0.417000       1.00800           0
     19534 TIP3     1912     TIP3     OH2      OT      -0.834000       15.9994           0
     19535 TIP3     1912     TIP3     H1       HT       0.417000       1.00800           0
     19536 TIP3     1912     TIP3     H2       HT       0.417000       1.00800           0
     19537 TIP3     1913     TIP3     OH2      OT      -0.834000       15.9994           0
     19538 TIP3     1913     TIP3     H1       HT       0.417000       1.00800           0
     19539 TIP3     1913     TIP3     H2       HT       0.417000       1.00800           0
     19540 TIP3     1914     TIP3     OH2      OT      -0.834000       15.9994           0
     19541 TIP3     1914     TIP3     H1       HT       0.417000       1.00800           0
     19542 TIP3     1914     TIP3     H2       HT       0.417000       1.00800           0
     19543 TIP3     1915     TIP3     OH2      OT      -0.834000       15.9994           0
     19544 TIP3     1915     TIP3     H1       HT       0.417000       1.00800           0
     19545 TIP3     1915     TIP3     H2       HT       0.417000       1.00800           0
     19546 TIP3     1916     TIP3     OH2      OT      -0.834000       15.9994           0
     19547 TIP3     1916     TIP3     H1       HT       0.417000       1.00800           0
     19548 TIP3     1916     TIP3     H2       HT       0.417000       1.00800           0
     19549 TIP3     1917     TIP3     OH2      OT      -0.834000       15.9994           0
     19550 TIP3     1917     TIP3     H1       HT       0.417000       1.00800           0
     19551 TIP3     1917     TIP3     H2       HT       0.417000       1.00800           0
     19552 TIP3     1918     TIP3     OH2      OT      -0.834000       15.9994           0
     19553 TIP3     1918     TIP3     H1       HT       0.417000       1.00800           0
     19554 TIP3     1918     TIP3     H2       HT       0.417000       1.00800           0
     19555 TIP3     1919     TIP3     OH2      OT      -0.834000       15.9994           0
     19556 TIP3     1919     TIP3     H1       HT       0.417000       1.00800           0
     19557 TIP3     1919     TIP3     H2       HT       0.417000       1.00800           0
     19558 TIP3     1920     TIP3     OH2      OT      -0.834000       15.9994           0
     19559 TIP3     1920     TIP3     H1       HT       0.417000       1.00800           0
     19560 TIP3     1920     TIP3     H2       HT       0.417000       1.00800           0
     19561 TIP3     1921     TIP3     OH2      OT      -0.834000       15.9994           0
     19562 TIP3     1921     TIP3     H1       HT       0.417000       1.00800           0
     19563 TIP3     1921     TIP3     H2       HT       0.417000       1.00800           0
     19564 TIP3     1922     TIP3     OH2      OT      -0.834000       15.9994           0
     19565 TIP3     1922     TIP3     H1       HT       0.417000       1.00800           0
     19566 TIP3     1922     TIP3     H2       HT       0.417000       1.00800           0
     19567 TIP3     1923     TIP3     OH2      OT      -0.834000       15.9994           0
     19568 TIP3     1923     TIP3     H1       HT       0.417000       1.00800           0
     19569 TIP3     1923     TIP3     H2       HT       0.417000       1.00800           0
     19570 TIP3     1924     TIP3     OH2      OT      -0.834000       15.9994           0
     19571 TIP3     1924     TIP3     H1       HT       0.417000       1.00800           0
     19572 TIP3     1924     TIP3     H2       HT       0.417000       1.00800           0
     19573 TIP3     1925     TIP3     OH2      OT      -0.834000       15.9994           0
     19574 TIP3     1925     TIP3     H1       HT       0.417000       1.00800           0
     19575 TIP3     1925     TIP3     H2       HT       0.417000       1.00800           0
     19576 TIP3     1926     TIP3     OH2      OT      -0.834000       15.9994           0
     19577 TIP3     1926     TIP3     H1       HT       0.417000       1.00800           0
     19578 TIP3     1926     TIP3     H2       HT       0.417000       1.00800           0
     19579 TIP3     1927     TIP3     OH2      OT      -0.834000       15.9994           0
     19580 TIP3     1927     TIP3     H1       HT       0.417000       1.00800           0
     19581 TIP3     1927     TIP3     H2       HT       0.417000       1.00800           0
     19582 TIP3     1928     TIP3     OH2      OT      -0.834000       15.9994           0
     19583 TIP3     1928     TIP3     H1       HT       0.417000       1.00800           0
     19584 TIP3     1928     TIP3     H2       HT       0.417000       1.00800           0
     19585 TIP3     1929     TIP3     OH2      OT      -0.834000       15.9994           0
     19586 TIP3     1929     TIP3     H1       HT       0.417000       1.00800           0
     19587 TIP3     1929     TIP3     H2       HT       0.417000       1.00800           0
     19588 TIP3     1930     TIP3     OH2      OT      -0.834000       15.9994           0
     19589 TIP3     1930     TIP3     H1       HT       0.417000       1.00800           0
     19590 TIP3     1930     TIP3     H2       HT       0.417000       1.00800           0
     19591 TIP3     1931     TIP3     OH2      OT      -0.834000       15.9994           0
     19592 TIP3     1931     TIP3     H1       HT       0.417000       1.00800           0
     19593 TIP3     1931     TIP3     H2       HT       0.417000       1.00800           0
     19594 TIP3     1932     TIP3     OH2      OT      -0.834000       15.9994           0
     19595 TIP3     1932     TIP3     H1       HT       0.417000       1.00800           0
     19596 TIP3     1932     TIP3     H2       HT       0.417000       1.00800           0
     19597 TIP3     1933     TIP3     OH2      OT      -0.834000       15.9994           0
     19598 TIP3     1933     TIP3     H1       HT       0.417000       1.00800           0
     19599 TIP3     1933     TIP3     H2       HT       0.417000       1.00800           0
     19600 TIP3     1934     TIP3     OH2      OT      -0.834000       15.9994           0
     19601 TIP3     1934     TIP3     H1       HT       0.417000       1.00800           0
     19602 TIP3     1934     TIP3     H2       HT       0.417000       1.00800           0
     19603 TIP3     1935     TIP3     OH2      OT      -0.834000       15.9994           0
     19604 TIP3     1935     TIP3     H1       HT       0.417000       1.00800           0
     19605 TIP3     1935     TIP3     H2       HT       0.417000       1.00800           0
     19606 TIP3     1936     TIP3     OH2      OT      -0.834000       15.9994           0
     19607 TIP3     1936     TIP3     H1       HT       0.417000       1.00800           0
     19608 TIP3     1936     TIP3     H2       HT       0.417000       1.00800           0
     19609 TIP3     1937     TIP3     OH2      OT      -0.834000       15.9994           0
     19610 TIP3     1937     TIP3     H1       HT       0.417000       1.00800           0
     19611 TIP3     1937     TIP3     H2       HT       0.417000       1.00800           0
     19612 TIP3     1938     TIP3     OH2      OT      -0.834000       15.9994           0
     19613 TIP3     1938     TIP3     H1       HT       0.417000       1.00800           0
     19614 TIP3     1938     TIP3     H2       HT       0.417000       1.00800           0
     19615 TIP3     1939     TIP3     OH2      OT      -0.834000       15.9994           0
     19616 TIP3     1939     TIP3     H1       HT       0.417000       1.00800           0
     19617 TIP3     1939     TIP3     H2       HT       0.417000       1.00800           0
     19618 TIP3     1940     TIP3     OH2      OT      -0.834000       15.9994           0
     19619 TIP3     1940     TIP3     H1       HT       0.417000       1.00800           0
     19620 TIP3     1940     TIP3     H2       HT       0.417000       1.00800           0
     19621 TIP3     1941     TIP3     OH2      OT      -0.834000       15.9994           0
     19622 TIP3     1941     TIP3     H1       HT       0.417000       1.00800           0
     19623 TIP3     1941     TIP3     H2       HT       0.417000       1.00800           0
     19624 TIP3     1942     TIP3     OH2      OT      -0.834000       15.9994           0
     19625 TIP3     1942     TIP3     H1       HT       0.417000       1.00800           0
     19626 TIP3     1942     TIP3     H2       HT       0.417000       1.00800           0
     19627 TIP3     1943     TIP3     OH2      OT      -0.834000       15.9994           0
     19628 TIP3     1943     TIP3     H1       HT       0.417000       1.00800           0
     19629 TIP3     1943     TIP3     H2       HT       0.417000       1.00800           0
     19630 TIP3     1944     TIP3     OH2      OT      -0.834000       15.9994           0
     19631 TIP3     1944     TIP3     H1       HT       0.417000       1.00800           0
     19632 TIP3     1944     TIP3     H2       HT       0.417000       1.00800           0
     19633 TIP3     1945     TIP3     OH2      OT      -0.834000       15.9994           0
     19634 TIP3     1945     TIP3     H1       HT       0.417000       1.00800           0
     19635 TIP3     1945     TIP3     H2       HT       0.417000       1.00800           0
     19636 TIP3     1946     TIP3     OH2      OT      -0.834000       15.9994           0
     19637 TIP3     1946     TIP3     H1       HT       0.417000       1.00800           0
     19638 TIP3     1946     TIP3     H2       HT       0.417000       1.00800           0
     19639 TIP3     1947     TIP3     OH2      OT      -0.834000       15.9994           0
     19640 TIP3     1947     TIP3     H1       HT       0.417000       1.00800           0
     19641 TIP3     1947     TIP3     H2       HT       0.417000       1.00800           0
     19642 TIP3     1948     TIP3     OH2      OT      -0.834000       15.9994           0
     19643 TIP3     1948     TIP3     H1       HT       0.417000       1.00800           0
     19644 TIP3     1948     TIP3     H2       HT       0.417000       1.00800           0
     19645 TIP3     1949     TIP3     OH2      OT      -0.834000       15.9994           0
     19646 TIP3     1949     TIP3     H1       HT       0.417000       1.00800           0
     19647 TIP3     1949     TIP3     H2       HT       0.417000       1.00800           0
     19648 TIP3     1950     TIP3     OH2      OT      -0.834000       15.9994           0
     19649 TIP3     1950     TIP3     H1       HT       0.417000       1.00800           0
     19650 TIP3     1950     TIP3     H2       HT       0.417000       1.00800           0
     19651 TIP3     1951     TIP3     OH2      OT      -0.834000       15.9994           0
     19652 TIP3     1951     TIP3     H1       HT       0.417000       1.00800           0
     19653 TIP3     1951     TIP3     H2       HT       0.417000       1.00800           0
     19654 TIP3     1952     TIP3     OH2      OT      -0.834000       15.9994           0
     19655 TIP3     1952     TIP3     H1       HT       0.417000       1.00800           0
     19656 TIP3     1952     TIP3     H2       HT       0.417000       1.00800           0
     19657 TIP3     1953     TIP3     OH2      OT      -0.834000       15.9994           0
     19658 TIP3     1953     TIP3     H1       HT       0.417000       1.00800           0
     19659 TIP3     1953     TIP3     H2       HT       0.417000       1.00800           0
     19660 TIP3     1954     TIP3     OH2      OT      -0.834000       15.9994           0
     19661 TIP3     1954     TIP3     H1       HT       0.417000       1.00800           0
     19662 TIP3     1954     TIP3     H2       HT       0.417000       1.00800           0
     19663 TIP3     1955     TIP3     OH2      OT      -0.834000       15.9994           0
     19664 TIP3     1955     TIP3     H1       HT       0.417000       1.00800           0
     19665 TIP3     1955     TIP3     H2       HT       0.417000       1.00800           0
     19666 TIP3     1956     TIP3     OH2      OT      -0.834000       15.9994           0
     19667 TIP3     1956     TIP3     H1       HT       0.417000       1.00800           0
     19668 TIP3     1956     TIP3     H2       HT       0.417000       1.00800           0
     19669 TIP3     1957     TIP3     OH2      OT      -0.834000       15.9994           0
     19670 TIP3     1957     TIP3     H1       HT       0.417000       1.00800           0
     19671 TIP3     1957     TIP3     H2       HT       0.417000       1.00800           0
     19672 TIP3     1958     TIP3     OH2      OT      -0.834000       15.9994           0
     19673 TIP3     1958     TIP3     H1       HT       0.417000       1.00800           0
     19674 TIP3     1958     TIP3     H2       HT       0.417000       1.00800           0
     19675 TIP3     1959     TIP3     OH2      OT      -0.834000       15.9994           0
     19676 TIP3     1959     TIP3     H1       HT       0.417000       1.00800           0
     19677 TIP3     1959     TIP3     H2       HT       0.417000       1.00800           0
     19678 TIP3     1960     TIP3     OH2      OT      -0.834000       15.9994           0
     19679 TIP3     1960     TIP3     H1       HT       0.417000       1.00800           0
     19680 TIP3     1960     TIP3     H2       HT       0.417000       1.00800           0
     19681 TIP3     1961     TIP3     OH2      OT      -0.834000       15.9994           0
     19682 TIP3     1961     TIP3     H1       HT       0.417000       1.00800           0
     19683 TIP3     1961     TIP3     H2       HT       0.417000       1.00800           0
     19684 TIP3     1962     TIP3     OH2      OT      -0.834000       15.9994           0
     19685 TIP3     1962     TIP3     H1       HT       0.417000       1.00800           0
     19686 TIP3     1962     TIP3     H2       HT       0.417000       1.00800           0
     19687 TIP3     1963     TIP3     OH2      OT      -0.834000       15.9994           0
     19688 TIP3     1963     TIP3     H1       HT       0.417000       1.00800           0
     19689 TIP3     1963     TIP3     H2       HT       0.417000       1.00800           0
     19690 TIP3     1964     TIP3     OH2      OT      -0.834000       15.9994           0
     19691 TIP3     1964     TIP3     H1       HT       0.417000       1.00800           0
     19692 TIP3     1964     TIP3     H2       HT       0.417000       1.00800           0
     19693 TIP3     1965     TIP3     OH2      OT      -0.834000       15.9994           0
     19694 TIP3     1965     TIP3     H1       HT       0.417000       1.00800           0
     19695 TIP3     1965     TIP3     H2       HT       0.417000       1.00800           0
     19696 TIP3     1966     TIP3     OH2      OT      -0.834000       15.9994           0
     19697 TIP3     1966     TIP3     H1       HT       0.417000       1.00800           0
     19698 TIP3     1966     TIP3     H2       HT       0.417000       1.00800           0
     19699 TIP3     1967     TIP3     OH2      OT      -0.834000       15.9994           0
     19700 TIP3     1967     TIP3     H1       HT       0.417000       1.00800           0
     19701 TIP3     1967     TIP3     H2       HT       0.417000       1.00800           0
     19702 TIP3     1968     TIP3     OH2      OT      -0.834000       15.9994           0
     19703 TIP3     1968     TIP3     H1       HT       0.417000       1.00800           0
     19704 TIP3     1968     TIP3     H2       HT       0.417000       1.00800           0
     19705 TIP3     1969     TIP3     OH2      OT      -0.834000       15.9994           0
     19706 TIP3     1969     TIP3     H1       HT       0.417000       1.00800           0
     19707 TIP3     1969     TIP3     H2       HT       0.417000       1.00800           0
     19708 TIP3     1970     TIP3     OH2      OT      -0.834000       15.9994           0
     19709 TIP3     1970     TIP3     H1       HT       0.417000       1.00800           0
     19710 TIP3     1970     TIP3     H2       HT       0.417000       1.00800           0
     19711 TIP3     1971     TIP3     OH2      OT      -0.834000       15.9994           0
     19712 TIP3     1971     TIP3     H1       HT       0.417000       1.00800           0
     19713 TIP3     1971     TIP3     H2       HT       0.417000       1.00800           0
     19714 TIP3     1972     TIP3     OH2      OT      -0.834000       15.9994           0
     19715 TIP3     1972     TIP3     H1       HT       0.417000       1.00800           0
     19716 TIP3     1972     TIP3     H2       HT       0.417000       1.00800           0
     19717 TIP3     1973     TIP3     OH2      OT      -0.834000       15.9994           0
     19718 TIP3     1973     TIP3     H1       HT       0.417000       1.00800           0
     19719 TIP3     1973     TIP3     H2       HT       0.417000       1.00800           0
     19720 TIP3     1974     TIP3     OH2      OT      -0.834000       15.9994           0
     19721 TIP3     1974     TIP3     H1       HT       0.417000       1.00800           0
     19722 TIP3     1974     TIP3     H2       HT       0.417000       1.00800           0
     19723 TIP3     1975     TIP3     OH2      OT      -0.834000       15.9994           0
     19724 TIP3     1975     TIP3     H1       HT       0.417000       1.00800           0
     19725 TIP3     1975     TIP3     H2       HT       0.417000       1.00800           0
     19726 TIP3     1976     TIP3     OH2      OT      -0.834000       15.9994           0
     19727 TIP3     1976     TIP3     H1       HT       0.417000       1.00800           0
     19728 TIP3     1976     TIP3     H2       HT       0.417000       1.00800           0
     19729 TIP3     1977     TIP3     OH2      OT      -0.834000       15.9994           0
     19730 TIP3     1977     TIP3     H1       HT       0.417000       1.00800           0
     19731 TIP3     1977     TIP3     H2       HT       0.417000       1.00800           0
     19732 TIP3     1978     TIP3     OH2      OT      -0.834000       15.9994           0
     19733 TIP3     1978     TIP3     H1       HT       0.417000       1.00800           0
     19734 TIP3     1978     TIP3     H2       HT       0.417000       1.00800           0
     19735 TIP3     1979     TIP3     OH2      OT      -0.834000       15.9994           0
     19736 TIP3     1979     TIP3     H1       HT       0.417000       1.00800           0
     19737 TIP3     1979     TIP3     H2       HT       0.417000       1.00800           0
     19738 TIP3     1980     TIP3     OH2      OT      -0.834000       15.9994           0
     19739 TIP3     1980     TIP3     H1       HT       0.417000       1.00800           0
     19740 TIP3     1980     TIP3     H2       HT       0.417000       1.00800           0
     19741 TIP3     1981     TIP3     OH2      OT      -0.834000       15.9994           0
     19742 TIP3     1981     TIP3     H1       HT       0.417000       1.00800           0
     19743 TIP3     1981     TIP3     H2       HT       0.417000       1.00800           0
     19744 TIP3     1982     TIP3     OH2      OT      -0.834000       15.9994           0
     19745 TIP3     1982     TIP3     H1       HT       0.417000       1.00800           0
     19746 TIP3     1982     TIP3     H2       HT       0.417000       1.00800           0
     19747 TIP3     1983     TIP3     OH2      OT      -0.834000       15.9994           0
     19748 TIP3     1983     TIP3     H1       HT       0.417000       1.00800           0
     19749 TIP3     1983     TIP3     H2       HT       0.417000       1.00800           0
     19750 TIP3     1984     TIP3     OH2      OT      -0.834000       15.9994           0
     19751 TIP3     1984     TIP3     H1       HT       0.417000       1.00800           0
     19752 TIP3     1984     TIP3     H2       HT       0.417000       1.00800           0
     19753 TIP3     1985     TIP3     OH2      OT      -0.834000       15.9994           0
     19754 TIP3     1985     TIP3     H1       HT       0.417000       1.00800           0
     19755 TIP3     1985     TIP3     H2       HT       0.417000       1.00800           0
     19756 TIP3     1986     TIP3     OH2      OT      -0.834000       15.9994           0
     19757 TIP3     1986     TIP3     H1       HT       0.417000       1.00800           0
     19758 TIP3     1986     TIP3     H2       HT       0.417000       1.00800           0
     19759 TIP3     1987     TIP3     OH2      OT      -0.834000       15.9994           0
     19760 TIP3     1987     TIP3     H1       HT       0.417000       1.00800           0
     19761 TIP3     1987     TIP3     H2       HT       0.417000       1.00800           0
     19762 TIP3     1988     TIP3     OH2      OT      -0.834000       15.9994           0
     19763 TIP3     1988     TIP3     H1       HT       0.417000       1.00800           0
     19764 TIP3     1988     TIP3     H2       HT       0.417000       1.00800           0
     19765 TIP3     1989     TIP3     OH2      OT      -0.834000       15.9994           0
     19766 TIP3     1989     TIP3     H1       HT       0.417000       1.00800           0
     19767 TIP3     1989     TIP3     H2       HT       0.417000       1.00800           0
     19768 TIP3     1990     TIP3     OH2      OT      -0.834000       15.9994           0
     19769 TIP3     1990     TIP3     H1       HT       0.417000       1.00800           0
     19770 TIP3     1990     TIP3     H2       HT       0.417000       1.00800           0
     19771 TIP3     1991     TIP3     OH2      OT      -0.834000       15.9994           0
     19772 TIP3     1991     TIP3     H1       HT       0.417000       1.00800           0
     19773 TIP3     1991     TIP3     H2       HT       0.417000       1.00800           0
     19774 TIP3     1992     TIP3     OH2      OT      -0.834000       15.9994           0
     19775 TIP3     1992     TIP3     H1       HT       0.417000       1.00800           0
     19776 TIP3     1992     TIP3     H2       HT       0.417000       1.00800           0
     19777 TIP3     1993     TIP3     OH2      OT      -0.834000       15.9994           0
     19778 TIP3     1993     TIP3     H1       HT       0.417000       1.00800           0
     19779 TIP3     1993     TIP3     H2       HT       0.417000       1.00800           0
     19780 TIP3     1994     TIP3     OH2      OT      -0.834000       15.9994           0
     19781 TIP3     1994     TIP3     H1       HT       0.417000       1.00800           0
     19782 TIP3     1994     TIP3     H2       HT       0.417000       1.00800           0
     19783 TIP3     1995     TIP3     OH2      OT      -0.834000       15.9994           0
     19784 TIP3     1995     TIP3     H1       HT       0.417000       1.00800           0
     19785 TIP3     1995     TIP3     H2       HT       0.417000       1.00800           0
     19786 TIP3     1996     TIP3     OH2      OT      -0.834000       15.9994           0
     19787 TIP3     1996     TIP3     H1       HT       0.417000       1.00800           0
     19788 TIP3     1996     TIP3     H2       HT       0.417000       1.00800           0
     19789 TIP3     1997     TIP3     OH2      OT      -0.834000       15.9994           0
     19790 TIP3     1997     TIP3     H1       HT       0.417000       1.00800           0
     19791 TIP3     1997     TIP3     H2       HT       0.417000       1.00800           0
     19792 TIP3     1998     TIP3     OH2      OT      -0.834000       15.9994           0
     19793 TIP3     1998     TIP3     H1       HT       0.417000       1.00800           0
     19794 TIP3     1998     TIP3     H2       HT       0.417000       1.00800           0
     19795 TIP3     1999     TIP3     OH2      OT      -0.834000       15.9994           0
     19796 TIP3     1999     TIP3     H1       HT       0.417000       1.00800           0
     19797 TIP3     1999     TIP3     H2       HT       0.417000       1.00800           0
     19798 TIP3     2000     TIP3     OH2      OT      -0.834000       15.9994           0
     19799 TIP3     2000     TIP3     H1       HT       0.417000       1.00800           0
     19800 TIP3     2000     TIP3     H2       HT       0.417000       1.00800           0
     19801 TIP3     2001     TIP3     OH2      OT      -0.834000       15.9994           0
     19802 TIP3     2001     TIP3     H1       HT       0.417000       1.00800           0
     19803 TIP3     2001     TIP3     H2       HT       0.417000       1.00800           0
     19804 TIP3     2002     TIP3     OH2      OT      -0.834000       15.9994           0
     19805 TIP3     2002     TIP3     H1       HT       0.417000       1.00800           0
     19806 TIP3     2002     TIP3     H2       HT       0.417000       1.00800           0
     19807 TIP3     2003     TIP3     OH2      OT      -0.834000       15.9994           0
     19808 TIP3     2003     TIP3     H1       HT       0.417000       1.00800           0
     19809 TIP3     2003     TIP3     H2       HT       0.417000       1.00800           0
     19810 TIP3     2004     TIP3     OH2      OT      -0.834000       15.9994           0
     19811 TIP3     2004     TIP3     H1       HT       0.417000       1.00800           0
     19812 TIP3     2004     TIP3     H2       HT       0.417000       1.00800           0
     19813 TIP3     2005     TIP3     OH2      OT      -0.834000       15.9994           0
     19814 TIP3     2005     TIP3     H1       HT       0.417000       1.00800           0
     19815 TIP3     2005     TIP3     H2       HT       0.417000       1.00800           0
     19816 TIP3     2006     TIP3     OH2      OT      -0.834000       15.9994           0
     19817 TIP3     2006     TIP3     H1       HT       0.417000       1.00800           0
     19818 TIP3     2006     TIP3     H2       HT       0.417000       1.00800           0
     19819 TIP3     2007     TIP3     OH2      OT      -0.834000       15.9994           0
     19820 TIP3     2007     TIP3     H1       HT       0.417000       1.00800           0
     19821 TIP3     2007     TIP3     H2       HT       0.417000       1.00800           0
     19822 TIP3     2008     TIP3     OH2      OT      -0.834000       15.9994           0
     19823 TIP3     2008     TIP3     H1       HT       0.417000       1.00800           0
     19824 TIP3     2008     TIP3     H2       HT       0.417000       1.00800           0
     19825 TIP3     2009     TIP3     OH2      OT      -0.834000       15.9994           0
     19826 TIP3     2009     TIP3     H1       HT       0.417000       1.00800           0
     19827 TIP3     2009     TIP3     H2       HT       0.417000       1.00800           0
     19828 TIP3     2010     TIP3     OH2      OT      -0.834000       15.9994           0
     19829 TIP3     2010     TIP3     H1       HT       0.417000       1.00800           0
     19830 TIP3     2010     TIP3     H2       HT       0.417000       1.00800           0
     19831 TIP3     2011     TIP3     OH2      OT      -0.834000       15.9994           0
     19832 TIP3     2011     TIP3     H1       HT       0.417000       1.00800           0
     19833 TIP3     2011     TIP3     H2       HT       0.417000       1.00800           0
     19834 TIP3     2012     TIP3     OH2      OT      -0.834000       15.9994           0
     19835 TIP3     2012     TIP3     H1       HT       0.417000       1.00800           0
     19836 TIP3     2012     TIP3     H2       HT       0.417000       1.00800           0
     19837 TIP3     2013     TIP3     OH2      OT      -0.834000       15.9994           0
     19838 TIP3     2013     TIP3     H1       HT       0.417000       1.00800           0
     19839 TIP3     2013     TIP3     H2       HT       0.417000       1.00800           0
     19840 TIP3     2014     TIP3     OH2      OT      -0.834000       15.9994           0
     19841 TIP3     2014     TIP3     H1       HT       0.417000       1.00800           0
     19842 TIP3     2014     TIP3     H2       HT       0.417000       1.00800           0
     19843 TIP3     2015     TIP3     OH2      OT      -0.834000       15.9994           0
     19844 TIP3     2015     TIP3     H1       HT       0.417000       1.00800           0
     19845 TIP3     2015     TIP3     H2       HT       0.417000       1.00800           0
     19846 TIP3     2016     TIP3     OH2      OT      -0.834000       15.9994           0
     19847 TIP3     2016     TIP3     H1       HT       0.417000       1.00800           0
     19848 TIP3     2016     TIP3     H2       HT       0.417000       1.00800           0
     19849 TIP3     2017     TIP3     OH2      OT      -0.834000       15.9994           0
     19850 TIP3     2017     TIP3     H1       HT       0.417000       1.00800           0
     19851 TIP3     2017     TIP3     H2       HT       0.417000       1.00800           0
     19852 TIP3     2018     TIP3     OH2      OT      -0.834000       15.9994           0
     19853 TIP3     2018     TIP3     H1       HT       0.417000       1.00800           0
     19854 TIP3     2018     TIP3     H2       HT       0.417000       1.00800           0
     19855 TIP3     2019     TIP3     OH2      OT      -0.834000       15.9994           0
     19856 TIP3     2019     TIP3     H1       HT       0.417000       1.00800           0
     19857 TIP3     2019     TIP3     H2       HT       0.417000       1.00800           0
     19858 TIP3     2020     TIP3     OH2      OT      -0.834000       15.9994           0
     19859 TIP3     2020     TIP3     H1       HT       0.417000       1.00800           0
     19860 TIP3     2020     TIP3     H2       HT       0.417000       1.00800           0
     19861 TIP3     2021     TIP3     OH2      OT      -0.834000       15.9994           0
     19862 TIP3     2021     TIP3     H1       HT       0.417000       1.00800           0
     19863 TIP3     2021     TIP3     H2       HT       0.417000       1.00800           0
     19864 TIP3     2022     TIP3     OH2      OT      -0.834000       15.9994           0
     19865 TIP3     2022     TIP3     H1       HT       0.417000       1.00800           0
     19866 TIP3     2022     TIP3     H2       HT       0.417000       1.00800           0
     19867 TIP3     2023     TIP3     OH2      OT      -0.834000       15.9994           0
     19868 TIP3     2023     TIP3     H1       HT       0.417000       1.00800           0
     19869 TIP3     2023     TIP3     H2       HT       0.417000       1.00800           0
     19870 TIP3     2024     TIP3     OH2      OT      -0.834000       15.9994           0
     19871 TIP3     2024     TIP3     H1       HT       0.417000       1.00800           0
     19872 TIP3     2024     TIP3     H2       HT       0.417000       1.00800           0
     19873 TIP3     2025     TIP3     OH2      OT      -0.834000       15.9994           0
     19874 TIP3     2025     TIP3     H1       HT       0.417000       1.00800           0
     19875 TIP3     2025     TIP3     H2       HT       0.417000       1.00800           0
     19876 TIP3     2026     TIP3     OH2      OT      -0.834000       15.9994           0
     19877 TIP3     2026     TIP3     H1       HT       0.417000       1.00800           0
     19878 TIP3     2026     TIP3     H2       HT       0.417000       1.00800           0
     19879 TIP3     2027     TIP3     OH2      OT      -0.834000       15.9994           0
     19880 TIP3     2027     TIP3     H1       HT       0.417000       1.00800           0
     19881 TIP3     2027     TIP3     H2       HT       0.417000       1.00800           0
     19882 TIP3     2028     TIP3     OH2      OT      -0.834000       15.9994           0
     19883 TIP3     2028     TIP3     H1       HT       0.417000       1.00800           0
     19884 TIP3     2028     TIP3     H2       HT       0.417000       1.00800           0
     19885 TIP3     2029     TIP3     OH2      OT      -0.834000       15.9994           0
     19886 TIP3     2029     TIP3     H1       HT       0.417000       1.00800           0
     19887 TIP3     2029     TIP3     H2       HT       0.417000       1.00800           0
     19888 TIP3     2030     TIP3     OH2      OT      -0.834000       15.9994           0
     19889 TIP3     2030     TIP3     H1       HT       0.417000       1.00800           0
     19890 TIP3     2030     TIP3     H2       HT       0.417000       1.00800           0
     19891 TIP3     2031     TIP3     OH2      OT      -0.834000       15.9994           0
     19892 TIP3     2031     TIP3     H1       HT       0.417000       1.00800           0
     19893 TIP3     2031     TIP3     H2       HT       0.417000       1.00800           0
     19894 TIP3     2032     TIP3     OH2      OT      -0.834000       15.9994           0
     19895 TIP3     2032     TIP3     H1       HT       0.417000       1.00800           0
     19896 TIP3     2032     TIP3     H2       HT       0.417000       1.00800           0
     19897 TIP3     2033     TIP3     OH2      OT      -0.834000       15.9994           0
     19898 TIP3     2033     TIP3     H1       HT       0.417000       1.00800           0
     19899 TIP3     2033     TIP3     H2       HT       0.417000       1.00800           0
     19900 TIP3     2034     TIP3     OH2      OT      -0.834000       15.9994           0
     19901 TIP3     2034     TIP3     H1       HT       0.417000       1.00800           0
     19902 TIP3     2034     TIP3     H2       HT       0.417000       1.00800           0
     19903 TIP3     2035     TIP3     OH2      OT      -0.834000       15.9994           0
     19904 TIP3     2035     TIP3     H1       HT       0.417000       1.00800           0
     19905 TIP3     2035     TIP3     H2       HT       0.417000       1.00800           0
     19906 TIP3     2036     TIP3     OH2      OT      -0.834000       15.9994           0
     19907 TIP3     2036     TIP3     H1       HT       0.417000       1.00800           0
     19908 TIP3     2036     TIP3     H2       HT       0.417000       1.00800           0
     19909 TIP3     2037     TIP3     OH2      OT      -0.834000       15.9994           0
     19910 TIP3     2037     TIP3     H1       HT       0.417000       1.00800           0
     19911 TIP3     2037     TIP3     H2       HT       0.417000       1.00800           0
     19912 TIP3     2038     TIP3     OH2      OT      -0.834000       15.9994           0
     19913 TIP3     2038     TIP3     H1       HT       0.417000       1.00800           0
     19914 TIP3     2038     TIP3     H2       HT       0.417000       1.00800           0
     19915 TIP3     2039     TIP3     OH2      OT      -0.834000       15.9994           0
     19916 TIP3     2039     TIP3     H1       HT       0.417000       1.00800           0
     19917 TIP3     2039     TIP3     H2       HT       0.417000       1.00800           0
     19918 TIP3     2040     TIP3     OH2      OT      -0.834000       15.9994           0
     19919 TIP3     2040     TIP3     H1       HT       0.417000       1.00800           0
     19920 TIP3     2040     TIP3     H2       HT       0.417000       1.00800           0
     19921 TIP3     2041     TIP3     OH2      OT      -0.834000       15.9994           0
     19922 TIP3     2041     TIP3     H1       HT       0.417000       1.00800           0
     19923 TIP3     2041     TIP3     H2       HT       0.417000       1.00800           0
     19924 TIP3     2042     TIP3     OH2      OT      -0.834000       15.9994           0
     19925 TIP3     2042     TIP3     H1       HT       0.417000       1.00800           0
     19926 TIP3     2042     TIP3     H2       HT       0.417000       1.00800           0
     19927 TIP3     2043     TIP3     OH2      OT      -0.834000       15.9994           0
     19928 TIP3     2043     TIP3     H1       HT       0.417000       1.00800           0
     19929 TIP3     2043     TIP3     H2       HT       0.417000       1.00800           0
     19930 TIP3     2044     TIP3     OH2      OT      -0.834000       15.9994           0
     19931 TIP3     2044     TIP3     H1       HT       0.417000       1.00800           0
     19932 TIP3     2044     TIP3     H2       HT       0.417000       1.00800           0
     19933 TIP3     2045     TIP3     OH2      OT      -0.834000       15.9994           0
     19934 TIP3     2045     TIP3     H1       HT       0.417000       1.00800           0
     19935 TIP3     2045     TIP3     H2       HT       0.417000       1.00800           0
     19936 TIP3     2046     TIP3     OH2      OT      -0.834000       15.9994           0
     19937 TIP3     2046     TIP3     H1       HT       0.417000       1.00800           0
     19938 TIP3     2046     TIP3     H2       HT       0.417000       1.00800           0
     19939 TIP3     2047     TIP3     OH2      OT      -0.834000       15.9994           0
     19940 TIP3     2047     TIP3     H1       HT       0.417000       1.00800           0
     19941 TIP3     2047     TIP3     H2       HT       0.417000       1.00800           0
     19942 TIP3     2048     TIP3     OH2      OT      -0.834000       15.9994           0
     19943 TIP3     2048     TIP3     H1       HT       0.417000       1.00800           0
     19944 TIP3     2048     TIP3     H2       HT       0.417000       1.00800           0
     19945 TIP3     2049     TIP3     OH2      OT      -0.834000       15.9994           0
     19946 TIP3     2049     TIP3     H1       HT       0.417000       1.00800           0
     19947 TIP3     2049     TIP3     H2       HT       0.417000       1.00800           0
     19948 TIP3     2050     TIP3     OH2      OT      -0.834000       15.9994           0
     19949 TIP3     2050     TIP3     H1       HT       0.417000       1.00800           0
     19950 TIP3     2050     TIP3     H2       HT       0.417000       1.00800           0
     19951 TIP3     2051     TIP3     OH2      OT      -0.834000       15.9994           0
     19952 TIP3     2051     TIP3     H1       HT       0.417000       1.00800           0
     19953 TIP3     2051     TIP3     H2       HT       0.417000       1.00800           0
     19954 TIP3     2052     TIP3     OH2      OT      -0.834000       15.9994           0
     19955 TIP3     2052     TIP3     H1       HT       0.417000       1.00800           0
     19956 TIP3     2052     TIP3     H2       HT       0.417000       1.00800           0
     19957 TIP3     2053     TIP3     OH2      OT      -0.834000       15.9994           0
     19958 TIP3     2053     TIP3     H1       HT       0.417000       1.00800           0
     19959 TIP3     2053     TIP3     H2       HT       0.417000       1.00800           0
     19960 TIP3     2054     TIP3     OH2      OT      -0.834000       15.9994           0
     19961 TIP3     2054     TIP3     H1       HT       0.417000       1.00800           0
     19962 TIP3     2054     TIP3     H2       HT       0.417000       1.00800           0
     19963 TIP3     2055     TIP3     OH2      OT      -0.834000       15.9994           0
     19964 TIP3     2055     TIP3     H1       HT       0.417000       1.00800           0
     19965 TIP3     2055     TIP3     H2       HT       0.417000       1.00800           0
     19966 TIP3     2056     TIP3     OH2      OT      -0.834000       15.9994           0
     19967 TIP3     2056     TIP3     H1       HT       0.417000       1.00800           0
     19968 TIP3     2056     TIP3     H2       HT       0.417000       1.00800           0
     19969 TIP3     2057     TIP3     OH2      OT      -0.834000       15.9994           0
     19970 TIP3     2057     TIP3     H1       HT       0.417000       1.00800           0
     19971 TIP3     2057     TIP3     H2       HT       0.417000       1.00800           0
     19972 TIP3     2058     TIP3     OH2      OT      -0.834000       15.9994           0
     19973 TIP3     2058     TIP3     H1       HT       0.417000       1.00800           0
     19974 TIP3     2058     TIP3     H2       HT       0.417000       1.00800           0
     19975 TIP3     2059     TIP3     OH2      OT      -0.834000       15.9994           0
     19976 TIP3     2059     TIP3     H1       HT       0.417000       1.00800           0
     19977 TIP3     2059     TIP3     H2       HT       0.417000       1.00800           0
     19978 TIP3     2060     TIP3     OH2      OT      -0.834000       15.9994           0
     19979 TIP3     2060     TIP3     H1       HT       0.417000       1.00800           0
     19980 TIP3     2060     TIP3     H2       HT       0.417000       1.00800           0
     19981 TIP3     2061     TIP3     OH2      OT      -0.834000       15.9994           0
     19982 TIP3     2061     TIP3     H1       HT       0.417000       1.00800           0
     19983 TIP3     2061     TIP3     H2       HT       0.417000       1.00800           0
     19984 TIP3     2062     TIP3     OH2      OT      -0.834000       15.9994           0
     19985 TIP3     2062     TIP3     H1       HT       0.417000       1.00800           0
     19986 TIP3     2062     TIP3     H2       HT       0.417000       1.00800           0
     19987 TIP3     2063     TIP3     OH2      OT      -0.834000       15.9994           0
     19988 TIP3     2063     TIP3     H1       HT       0.417000       1.00800           0
     19989 TIP3     2063     TIP3     H2       HT       0.417000       1.00800           0
     19990 TIP3     2064     TIP3     OH2      OT      -0.834000       15.9994           0
     19991 TIP3     2064     TIP3     H1       HT       0.417000       1.00800           0
     19992 TIP3     2064     TIP3     H2       HT       0.417000       1.00800           0
     19993 TIP3     2065     TIP3     OH2      OT      -0.834000       15.9994           0
     19994 TIP3     2065     TIP3     H1       HT       0.417000       1.00800           0
     19995 TIP3     2065     TIP3     H2       HT       0.417000       1.00800           0
     19996 TIP3     2066     TIP3     OH2      OT      -0.834000       15.9994           0
     19997 TIP3     2066     TIP3     H1       HT       0.417000       1.00800           0
     19998 TIP3     2066     TIP3     H2       HT       0.417000       1.00800           0
     19999 TIP3     2067     TIP3     OH2      OT      -0.834000       15.9994           0
     20000 TIP3     2067     TIP3     H1       HT       0.417000       1.00800           0
     20001 TIP3     2067     TIP3     H2       HT       0.417000       1.00800           0
     20002 TIP3     2068     TIP3     OH2      OT      -0.834000       15.9994           0
     20003 TIP3     2068     TIP3     H1       HT       0.417000       1.00800           0
     20004 TIP3     2068     TIP3     H2       HT       0.417000       1.00800           0
     20005 TIP3     2069     TIP3     OH2      OT      -0.834000       15.9994           0
     20006 TIP3     2069     TIP3     H1       HT       0.417000       1.00800           0
     20007 TIP3     2069     TIP3     H2       HT       0.417000       1.00800           0
     20008 TIP3     2070     TIP3     OH2      OT      -0.834000       15.9994           0
     20009 TIP3     2070     TIP3     H1       HT       0.417000       1.00800           0
     20010 TIP3     2070     TIP3     H2       HT       0.417000       1.00800           0
     20011 TIP3     2071     TIP3     OH2      OT      -0.834000       15.9994           0
     20012 TIP3     2071     TIP3     H1       HT       0.417000       1.00800           0
     20013 TIP3     2071     TIP3     H2       HT       0.417000       1.00800           0
     20014 TIP3     2072     TIP3     OH2      OT      -0.834000       15.9994           0
     20015 TIP3     2072     TIP3     H1       HT       0.417000       1.00800           0
     20016 TIP3     2072     TIP3     H2       HT       0.417000       1.00800           0
     20017 TIP3     2073     TIP3     OH2      OT      -0.834000       15.9994           0
     20018 TIP3     2073     TIP3     H1       HT       0.417000       1.00800           0
     20019 TIP3     2073     TIP3     H2       HT       0.417000       1.00800           0
     20020 TIP3     2074     TIP3     OH2      OT      -0.834000       15.9994           0
     20021 TIP3     2074     TIP3     H1       HT       0.417000       1.00800           0
     20022 TIP3     2074     TIP3     H2       HT       0.417000       1.00800           0
     20023 TIP3     2075     TIP3     OH2      OT      -0.834000       15.9994           0
     20024 TIP3     2075     TIP3     H1       HT       0.417000       1.00800           0
     20025 TIP3     2075     TIP3     H2       HT       0.417000       1.00800           0
     20026 TIP3     2076     TIP3     OH2      OT      -0.834000       15.9994           0
     20027 TIP3     2076     TIP3     H1       HT       0.417000       1.00800           0
     20028 TIP3     2076     TIP3     H2       HT       0.417000       1.00800           0
     20029 TIP3     2077     TIP3     OH2      OT      -0.834000       15.9994           0
     20030 TIP3     2077     TIP3     H1       HT       0.417000       1.00800           0
     20031 TIP3     2077     TIP3     H2       HT       0.417000       1.00800           0
     20032 TIP3     2078     TIP3     OH2      OT      -0.834000       15.9994           0
     20033 TIP3     2078     TIP3     H1       HT       0.417000       1.00800           0
     20034 TIP3     2078     TIP3     H2       HT       0.417000       1.00800           0
     20035 TIP3     2079     TIP3     OH2      OT      -0.834000       15.9994           0
     20036 TIP3     2079     TIP3     H1       HT       0.417000       1.00800           0
     20037 TIP3     2079     TIP3     H2       HT       0.417000       1.00800           0
     20038 TIP3     2080     TIP3     OH2      OT      -0.834000       15.9994           0
     20039 TIP3     2080     TIP3     H1       HT       0.417000       1.00800           0
     20040 TIP3     2080     TIP3     H2       HT       0.417000       1.00800           0
     20041 TIP3     2081     TIP3     OH2      OT      -0.834000       15.9994           0
     20042 TIP3     2081     TIP3     H1       HT       0.417000       1.00800           0
     20043 TIP3     2081     TIP3     H2       HT       0.417000       1.00800           0
     20044 TIP3     2082     TIP3     OH2      OT      -0.834000       15.9994           0
     20045 TIP3     2082     TIP3     H1       HT       0.417000       1.00800           0
     20046 TIP3     2082     TIP3     H2       HT       0.417000       1.00800           0
     20047 TIP3     2083     TIP3     OH2      OT      -0.834000       15.9994           0
     20048 TIP3     2083     TIP3     H1       HT       0.417000       1.00800           0
     20049 TIP3     2083     TIP3     H2       HT       0.417000       1.00800           0
     20050 TIP3     2084     TIP3     OH2      OT      -0.834000       15.9994           0
     20051 TIP3     2084     TIP3     H1       HT       0.417000       1.00800           0
     20052 TIP3     2084     TIP3     H2       HT       0.417000       1.00800           0
     20053 TIP3     2085     TIP3     OH2      OT      -0.834000       15.9994           0
     20054 TIP3     2085     TIP3     H1       HT       0.417000       1.00800           0
     20055 TIP3     2085     TIP3     H2       HT       0.417000       1.00800           0
     20056 TIP3     2086     TIP3     OH2      OT      -0.834000       15.9994           0
     20057 TIP3     2086     TIP3     H1       HT       0.417000       1.00800           0
     20058 TIP3     2086     TIP3     H2       HT       0.417000       1.00800           0
     20059 TIP3     2087     TIP3     OH2      OT      -0.834000       15.9994           0
     20060 TIP3     2087     TIP3     H1       HT       0.417000       1.00800           0
     20061 TIP3     2087     TIP3     H2       HT       0.417000       1.00800           0
     20062 TIP3     2088     TIP3     OH2      OT      -0.834000       15.9994           0
     20063 TIP3     2088     TIP3     H1       HT       0.417000       1.00800           0
     20064 TIP3     2088     TIP3     H2       HT       0.417000       1.00800           0
     20065 TIP3     2089     TIP3     OH2      OT      -0.834000       15.9994           0
     20066 TIP3     2089     TIP3     H1       HT       0.417000       1.00800           0
     20067 TIP3     2089     TIP3     H2       HT       0.417000       1.00800           0
     20068 TIP3     2090     TIP3     OH2      OT      -0.834000       15.9994           0
     20069 TIP3     2090     TIP3     H1       HT       0.417000       1.00800           0
     20070 TIP3     2090     TIP3     H2       HT       0.417000       1.00800           0
     20071 TIP3     2091     TIP3     OH2      OT      -0.834000       15.9994           0
     20072 TIP3     2091     TIP3     H1       HT       0.417000       1.00800           0
     20073 TIP3     2091     TIP3     H2       HT       0.417000       1.00800           0
     20074 TIP3     2092     TIP3     OH2      OT      -0.834000       15.9994           0
     20075 TIP3     2092     TIP3     H1       HT       0.417000       1.00800           0
     20076 TIP3     2092     TIP3     H2       HT       0.417000       1.00800           0
     20077 TIP3     2093     TIP3     OH2      OT      -0.834000       15.9994           0
     20078 TIP3     2093     TIP3     H1       HT       0.417000       1.00800           0
     20079 TIP3     2093     TIP3     H2       HT       0.417000       1.00800           0
     20080 TIP3     2094     TIP3     OH2      OT      -0.834000       15.9994           0
     20081 TIP3     2094     TIP3     H1       HT       0.417000       1.00800           0
     20082 TIP3     2094     TIP3     H2       HT       0.417000       1.00800           0
     20083 TIP3     2095     TIP3     OH2      OT      -0.834000       15.9994           0
     20084 TIP3     2095     TIP3     H1       HT       0.417000       1.00800           0
     20085 TIP3     2095     TIP3     H2       HT       0.417000       1.00800           0
     20086 TIP3     2096     TIP3     OH2      OT      -0.834000       15.9994           0
     20087 TIP3     2096     TIP3     H1       HT       0.417000       1.00800           0
     20088 TIP3     2096     TIP3     H2       HT       0.417000       1.00800           0
     20089 TIP3     2097     TIP3     OH2      OT      -0.834000       15.9994           0
     20090 TIP3     2097     TIP3     H1       HT       0.417000       1.00800           0
     20091 TIP3     2097     TIP3     H2       HT       0.417000       1.00800           0
     20092 TIP3     2098     TIP3     OH2      OT      -0.834000       15.9994           0
     20093 TIP3     2098     TIP3     H1       HT       0.417000       1.00800           0
     20094 TIP3     2098     TIP3     H2       HT       0.417000       1.00800           0
     20095 TIP3     2099     TIP3     OH2      OT      -0.834000       15.9994           0
     20096 TIP3     2099     TIP3     H1       HT       0.417000       1.00800           0
     20097 TIP3     2099     TIP3     H2       HT       0.417000       1.00800           0
     20098 TIP3     2100     TIP3     OH2      OT      -0.834000       15.9994           0
     20099 TIP3     2100     TIP3     H1       HT       0.417000       1.00800           0
     20100 TIP3     2100     TIP3     H2       HT       0.417000       1.00800           0
     20101 TIP3     2101     TIP3     OH2      OT      -0.834000       15.9994           0
     20102 TIP3     2101     TIP3     H1       HT       0.417000       1.00800           0
     20103 TIP3     2101     TIP3     H2       HT       0.417000       1.00800           0
     20104 TIP3     2102     TIP3     OH2      OT      -0.834000       15.9994           0
     20105 TIP3     2102     TIP3     H1       HT       0.417000       1.00800           0
     20106 TIP3     2102     TIP3     H2       HT       0.417000       1.00800           0
     20107 TIP3     2103     TIP3     OH2      OT      -0.834000       15.9994           0
     20108 TIP3     2103     TIP3     H1       HT       0.417000       1.00800           0
     20109 TIP3     2103     TIP3     H2       HT       0.417000       1.00800           0
     20110 TIP3     2104     TIP3     OH2      OT      -0.834000       15.9994           0
     20111 TIP3     2104     TIP3     H1       HT       0.417000       1.00800           0
     20112 TIP3     2104     TIP3     H2       HT       0.417000       1.00800           0
     20113 TIP3     2105     TIP3     OH2      OT      -0.834000       15.9994           0
     20114 TIP3     2105     TIP3     H1       HT       0.417000       1.00800           0
     20115 TIP3     2105     TIP3     H2       HT       0.417000       1.00800           0
     20116 TIP3     2106     TIP3     OH2      OT      -0.834000       15.9994           0
     20117 TIP3     2106     TIP3     H1       HT       0.417000       1.00800           0
     20118 TIP3     2106     TIP3     H2       HT       0.417000       1.00800           0
     20119 TIP3     2107     TIP3     OH2      OT      -0.834000       15.9994           0
     20120 TIP3     2107     TIP3     H1       HT       0.417000       1.00800           0
     20121 TIP3     2107     TIP3     H2       HT       0.417000       1.00800           0
     20122 TIP3     2108     TIP3     OH2      OT      -0.834000       15.9994           0
     20123 TIP3     2108     TIP3     H1       HT       0.417000       1.00800           0
     20124 TIP3     2108     TIP3     H2       HT       0.417000       1.00800           0
     20125 TIP3     2109     TIP3     OH2      OT      -0.834000       15.9994           0
     20126 TIP3     2109     TIP3     H1       HT       0.417000       1.00800           0
     20127 TIP3     2109     TIP3     H2       HT       0.417000       1.00800           0
     20128 TIP3     2110     TIP3     OH2      OT      -0.834000       15.9994           0
     20129 TIP3     2110     TIP3     H1       HT       0.417000       1.00800           0
     20130 TIP3     2110     TIP3     H2       HT       0.417000       1.00800           0
     20131 TIP3     2111     TIP3     OH2      OT      -0.834000       15.9994           0
     20132 TIP3     2111     TIP3     H1       HT       0.417000       1.00800           0
     20133 TIP3     2111     TIP3     H2       HT       0.417000       1.00800           0
     20134 TIP3     2112     TIP3     OH2      OT      -0.834000       15.9994           0
     20135 TIP3     2112     TIP3     H1       HT       0.417000       1.00800           0
     20136 TIP3     2112     TIP3     H2       HT       0.417000       1.00800           0
     20137 TIP3     2113     TIP3     OH2      OT      -0.834000       15.9994           0
     20138 TIP3     2113     TIP3     H1       HT       0.417000       1.00800           0
     20139 TIP3     2113     TIP3     H2       HT       0.417000       1.00800           0
     20140 TIP3     2114     TIP3     OH2      OT      -0.834000       15.9994           0
     20141 TIP3     2114     TIP3     H1       HT       0.417000       1.00800           0
     20142 TIP3     2114     TIP3     H2       HT       0.417000       1.00800           0
     20143 TIP3     2115     TIP3     OH2      OT      -0.834000       15.9994           0
     20144 TIP3     2115     TIP3     H1       HT       0.417000       1.00800           0
     20145 TIP3     2115     TIP3     H2       HT       0.417000       1.00800           0
     20146 TIP3     2116     TIP3     OH2      OT      -0.834000       15.9994           0
     20147 TIP3     2116     TIP3     H1       HT       0.417000       1.00800           0
     20148 TIP3     2116     TIP3     H2       HT       0.417000       1.00800           0
     20149 TIP3     2117     TIP3     OH2      OT      -0.834000       15.9994           0
     20150 TIP3     2117     TIP3     H1       HT       0.417000       1.00800           0
     20151 TIP3     2117     TIP3     H2       HT       0.417000       1.00800           0
     20152 TIP3     2118     TIP3     OH2      OT      -0.834000       15.9994           0
     20153 TIP3     2118     TIP3     H1       HT       0.417000       1.00800           0
     20154 TIP3     2118     TIP3     H2       HT       0.417000       1.00800           0
     20155 TIP3     2119     TIP3     OH2      OT      -0.834000       15.9994           0
     20156 TIP3     2119     TIP3     H1       HT       0.417000       1.00800           0
     20157 TIP3     2119     TIP3     H2       HT       0.417000       1.00800           0
     20158 TIP3     2120     TIP3     OH2      OT      -0.834000       15.9994           0
     20159 TIP3     2120     TIP3     H1       HT       0.417000       1.00800           0
     20160 TIP3     2120     TIP3     H2       HT       0.417000       1.00800           0
     20161 TIP3     2121     TIP3     OH2      OT      -0.834000       15.9994           0
     20162 TIP3     2121     TIP3     H1       HT       0.417000       1.00800           0
     20163 TIP3     2121     TIP3     H2       HT       0.417000       1.00800           0
     20164 TIP3     2122     TIP3     OH2      OT      -0.834000       15.9994           0
     20165 TIP3     2122     TIP3     H1       HT       0.417000       1.00800           0
     20166 TIP3     2122     TIP3     H2       HT       0.417000       1.00800           0
     20167 TIP3     2123     TIP3     OH2      OT      -0.834000       15.9994           0
     20168 TIP3     2123     TIP3     H1       HT       0.417000       1.00800           0
     20169 TIP3     2123     TIP3     H2       HT       0.417000       1.00800           0
     20170 TIP3     2124     TIP3     OH2      OT      -0.834000       15.9994           0
     20171 TIP3     2124     TIP3     H1       HT       0.417000       1.00800           0
     20172 TIP3     2124     TIP3     H2       HT       0.417000       1.00800           0
     20173 TIP3     2125     TIP3     OH2      OT      -0.834000       15.9994           0
     20174 TIP3     2125     TIP3     H1       HT       0.417000       1.00800           0
     20175 TIP3     2125     TIP3     H2       HT       0.417000       1.00800           0
     20176 TIP3     2126     TIP3     OH2      OT      -0.834000       15.9994           0
     20177 TIP3     2126     TIP3     H1       HT       0.417000       1.00800           0
     20178 TIP3     2126     TIP3     H2       HT       0.417000       1.00800           0
     20179 TIP3     2127     TIP3     OH2      OT      -0.834000       15.9994           0
     20180 TIP3     2127     TIP3     H1       HT       0.417000       1.00800           0
     20181 TIP3     2127     TIP3     H2       HT       0.417000       1.00800           0
     20182 TIP3     2128     TIP3     OH2      OT      -0.834000       15.9994           0
     20183 TIP3     2128     TIP3     H1       HT       0.417000       1.00800           0
     20184 TIP3     2128     TIP3     H2       HT       0.417000       1.00800           0
     20185 TIP3     2129     TIP3     OH2      OT      -0.834000       15.9994           0
     20186 TIP3     2129     TIP3     H1       HT       0.417000       1.00800           0
     20187 TIP3     2129     TIP3     H2       HT       0.417000       1.00800           0
     20188 TIP3     2130     TIP3     OH2      OT      -0.834000       15.9994           0
     20189 TIP3     2130     TIP3     H1       HT       0.417000       1.00800           0
     20190 TIP3     2130     TIP3     H2       HT       0.417000       1.00800           0
     20191 TIP3     2131     TIP3     OH2      OT      -0.834000       15.9994           0
     20192 TIP3     2131     TIP3     H1       HT       0.417000       1.00800           0
     20193 TIP3     2131     TIP3     H2       HT       0.417000       1.00800           0
     20194 TIP3     2132     TIP3     OH2      OT      -0.834000       15.9994           0
     20195 TIP3     2132     TIP3     H1       HT       0.417000       1.00800           0
     20196 TIP3     2132     TIP3     H2       HT       0.417000       1.00800           0
     20197 TIP3     2133     TIP3     OH2      OT      -0.834000       15.9994           0
     20198 TIP3     2133     TIP3     H1       HT       0.417000       1.00800           0
     20199 TIP3     2133     TIP3     H2       HT       0.417000       1.00800           0
     20200 TIP3     2134     TIP3     OH2      OT      -0.834000       15.9994           0
     20201 TIP3     2134     TIP3     H1       HT       0.417000       1.00800           0
     20202 TIP3     2134     TIP3     H2       HT       0.417000       1.00800           0
     20203 TIP3     2135     TIP3     OH2      OT      -0.834000       15.9994           0
     20204 TIP3     2135     TIP3     H1       HT       0.417000       1.00800           0
     20205 TIP3     2135     TIP3     H2       HT       0.417000       1.00800           0
     20206 TIP3     2136     TIP3     OH2      OT      -0.834000       15.9994           0
     20207 TIP3     2136     TIP3     H1       HT       0.417000       1.00800           0
     20208 TIP3     2136     TIP3     H2       HT       0.417000       1.00800           0
     20209 TIP3     2137     TIP3     OH2      OT      -0.834000       15.9994           0
     20210 TIP3     2137     TIP3     H1       HT       0.417000       1.00800           0
     20211 TIP3     2137     TIP3     H2       HT       0.417000       1.00800           0
     20212 TIP3     2138     TIP3     OH2      OT      -0.834000       15.9994           0
     20213 TIP3     2138     TIP3     H1       HT       0.417000       1.00800           0
     20214 TIP3     2138     TIP3     H2       HT       0.417000       1.00800           0
     20215 TIP3     2139     TIP3     OH2      OT      -0.834000       15.9994           0
     20216 TIP3     2139     TIP3     H1       HT       0.417000       1.00800           0
     20217 TIP3     2139     TIP3     H2       HT       0.417000       1.00800           0
     20218 TIP3     2140     TIP3     OH2      OT      -0.834000       15.9994           0
     20219 TIP3     2140     TIP3     H1       HT       0.417000       1.00800           0
     20220 TIP3     2140     TIP3     H2       HT       0.417000       1.00800           0
     20221 TIP3     2141     TIP3     OH2      OT      -0.834000       15.9994           0
     20222 TIP3     2141     TIP3     H1       HT       0.417000       1.00800           0
     20223 TIP3     2141     TIP3     H2       HT       0.417000       1.00800           0
     20224 TIP3     2142     TIP3     OH2      OT      -0.834000       15.9994           0
     20225 TIP3     2142     TIP3     H1       HT       0.417000       1.00800           0
     20226 TIP3     2142     TIP3     H2       HT       0.417000       1.00800           0
     20227 TIP3     2143     TIP3     OH2      OT      -0.834000       15.9994           0
     20228 TIP3     2143     TIP3     H1       HT       0.417000       1.00800           0
     20229 TIP3     2143     TIP3     H2       HT       0.417000       1.00800           0
     20230 TIP3     2144     TIP3     OH2      OT      -0.834000       15.9994           0
     20231 TIP3     2144     TIP3     H1       HT       0.417000       1.00800           0
     20232 TIP3     2144     TIP3     H2       HT       0.417000       1.00800           0
     20233 TIP3     2145     TIP3     OH2      OT      -0.834000       15.9994           0
     20234 TIP3     2145     TIP3     H1       HT       0.417000       1.00800           0
     20235 TIP3     2145     TIP3     H2       HT       0.417000       1.00800           0
     20236 TIP3     2146     TIP3     OH2      OT      -0.834000       15.9994           0
     20237 TIP3     2146     TIP3     H1       HT       0.417000       1.00800           0
     20238 TIP3     2146     TIP3     H2       HT       0.417000       1.00800           0
     20239 TIP3     2147     TIP3     OH2      OT      -0.834000       15.9994           0
     20240 TIP3     2147     TIP3     H1       HT       0.417000       1.00800           0
     20241 TIP3     2147     TIP3     H2       HT       0.417000       1.00800           0
     20242 TIP3     2148     TIP3     OH2      OT      -0.834000       15.9994           0
     20243 TIP3     2148     TIP3     H1       HT       0.417000       1.00800           0
     20244 TIP3     2148     TIP3     H2       HT       0.417000       1.00800           0
     20245 TIP3     2149     TIP3     OH2      OT      -0.834000       15.9994           0
     20246 TIP3     2149     TIP3     H1       HT       0.417000       1.00800           0
     20247 TIP3     2149     TIP3     H2       HT       0.417000       1.00800           0
     20248 TIP3     2150     TIP3     OH2      OT      -0.834000       15.9994           0
     20249 TIP3     2150     TIP3     H1       HT       0.417000       1.00800           0
     20250 TIP3     2150     TIP3     H2       HT       0.417000       1.00800           0
     20251 TIP3     2151     TIP3     OH2      OT      -0.834000       15.9994           0
     20252 TIP3     2151     TIP3     H1       HT       0.417000       1.00800           0
     20253 TIP3     2151     TIP3     H2       HT       0.417000       1.00800           0
     20254 TIP3     2152     TIP3     OH2      OT      -0.834000       15.9994           0
     20255 TIP3     2152     TIP3     H1       HT       0.417000       1.00800           0
     20256 TIP3     2152     TIP3     H2       HT       0.417000       1.00800           0
     20257 TIP3     2153     TIP3     OH2      OT      -0.834000       15.9994           0
     20258 TIP3     2153     TIP3     H1       HT       0.417000       1.00800           0
     20259 TIP3     2153     TIP3     H2       HT       0.417000       1.00800           0
     20260 TIP3     2154     TIP3     OH2      OT      -0.834000       15.9994           0
     20261 TIP3     2154     TIP3     H1       HT       0.417000       1.00800           0
     20262 TIP3     2154     TIP3     H2       HT       0.417000       1.00800           0
     20263 TIP3     2155     TIP3     OH2      OT      -0.834000       15.9994           0
     20264 TIP3     2155     TIP3     H1       HT       0.417000       1.00800           0
     20265 TIP3     2155     TIP3     H2       HT       0.417000       1.00800           0
     20266 TIP3     2156     TIP3     OH2      OT      -0.834000       15.9994           0
     20267 TIP3     2156     TIP3     H1       HT       0.417000       1.00800           0
     20268 TIP3     2156     TIP3     H2       HT       0.417000       1.00800           0
     20269 TIP3     2157     TIP3     OH2      OT      -0.834000       15.9994           0
     20270 TIP3     2157     TIP3     H1       HT       0.417000       1.00800           0
     20271 TIP3     2157     TIP3     H2       HT       0.417000       1.00800           0
     20272 TIP3     2158     TIP3     OH2      OT      -0.834000       15.9994           0
     20273 TIP3     2158     TIP3     H1       HT       0.417000       1.00800           0
     20274 TIP3     2158     TIP3     H2       HT       0.417000       1.00800           0
     20275 TIP3     2159     TIP3     OH2      OT      -0.834000       15.9994           0
     20276 TIP3     2159     TIP3     H1       HT       0.417000       1.00800           0
     20277 TIP3     2159     TIP3     H2       HT       0.417000       1.00800           0
     20278 TIP3     2160     TIP3     OH2      OT      -0.834000       15.9994           0
     20279 TIP3     2160     TIP3     H1       HT       0.417000       1.00800           0
     20280 TIP3     2160     TIP3     H2       HT       0.417000       1.00800           0
     20281 TIP3     2161     TIP3     OH2      OT      -0.834000       15.9994           0
     20282 TIP3     2161     TIP3     H1       HT       0.417000       1.00800           0
     20283 TIP3     2161     TIP3     H2       HT       0.417000       1.00800           0
     20284 TIP3     2162     TIP3     OH2      OT      -0.834000       15.9994           0
     20285 TIP3     2162     TIP3     H1       HT       0.417000       1.00800           0
     20286 TIP3     2162     TIP3     H2       HT       0.417000       1.00800           0
     20287 TIP3     2163     TIP3     OH2      OT      -0.834000       15.9994           0
     20288 TIP3     2163     TIP3     H1       HT       0.417000       1.00800           0
     20289 TIP3     2163     TIP3     H2       HT       0.417000       1.00800           0
     20290 TIP3     2164     TIP3     OH2      OT      -0.834000       15.9994           0
     20291 TIP3     2164     TIP3     H1       HT       0.417000       1.00800           0
     20292 TIP3     2164     TIP3     H2       HT       0.417000       1.00800           0
     20293 TIP3     2165     TIP3     OH2      OT      -0.834000       15.9994           0
     20294 TIP3     2165     TIP3     H1       HT       0.417000       1.00800           0
     20295 TIP3     2165     TIP3     H2       HT       0.417000       1.00800           0
     20296 TIP3     2166     TIP3     OH2      OT      -0.834000       15.9994           0
     20297 TIP3     2166     TIP3     H1       HT       0.417000       1.00800           0
     20298 TIP3     2166     TIP3     H2       HT       0.417000       1.00800           0
     20299 TIP3     2167     TIP3     OH2      OT      -0.834000       15.9994           0
     20300 TIP3     2167     TIP3     H1       HT       0.417000       1.00800           0
     20301 TIP3     2167     TIP3     H2       HT       0.417000       1.00800           0
     20302 TIP3     2168     TIP3     OH2      OT      -0.834000       15.9994           0
     20303 TIP3     2168     TIP3     H1       HT       0.417000       1.00800           0
     20304 TIP3     2168     TIP3     H2       HT       0.417000       1.00800           0
     20305 TIP3     2169     TIP3     OH2      OT      -0.834000       15.9994           0
     20306 TIP3     2169     TIP3     H1       HT       0.417000       1.00800           0
     20307 TIP3     2169     TIP3     H2       HT       0.417000       1.00800           0
     20308 TIP3     2170     TIP3     OH2      OT      -0.834000       15.9994           0
     20309 TIP3     2170     TIP3     H1       HT       0.417000       1.00800           0
     20310 TIP3     2170     TIP3     H2       HT       0.417000       1.00800           0
     20311 TIP3     2171     TIP3     OH2      OT      -0.834000       15.9994           0
     20312 TIP3     2171     TIP3     H1       HT       0.417000       1.00800           0
     20313 TIP3     2171     TIP3     H2       HT       0.417000       1.00800           0
     20314 TIP3     2172     TIP3     OH2      OT      -0.834000       15.9994           0
     20315 TIP3     2172     TIP3     H1       HT       0.417000       1.00800           0
     20316 TIP3     2172     TIP3     H2       HT       0.417000       1.00800           0
     20317 TIP3     2173     TIP3     OH2      OT      -0.834000       15.9994           0
     20318 TIP3     2173     TIP3     H1       HT       0.417000       1.00800           0
     20319 TIP3     2173     TIP3     H2       HT       0.417000       1.00800           0
     20320 TIP3     2174     TIP3     OH2      OT      -0.834000       15.9994           0
     20321 TIP3     2174     TIP3     H1       HT       0.417000       1.00800           0
     20322 TIP3     2174     TIP3     H2       HT       0.417000       1.00800           0
     20323 TIP3     2175     TIP3     OH2      OT      -0.834000       15.9994           0
     20324 TIP3     2175     TIP3     H1       HT       0.417000       1.00800           0
     20325 TIP3     2175     TIP3     H2       HT       0.417000       1.00800           0
     20326 TIP3     2176     TIP3     OH2      OT      -0.834000       15.9994           0
     20327 TIP3     2176     TIP3     H1       HT       0.417000       1.00800           0
     20328 TIP3     2176     TIP3     H2       HT       0.417000       1.00800           0
     20329 TIP3     2177     TIP3     OH2      OT      -0.834000       15.9994           0
     20330 TIP3     2177     TIP3     H1       HT       0.417000       1.00800           0
     20331 TIP3     2177     TIP3     H2       HT       0.417000       1.00800           0
     20332 TIP3     2178     TIP3     OH2      OT      -0.834000       15.9994           0
     20333 TIP3     2178     TIP3     H1       HT       0.417000       1.00800           0
     20334 TIP3     2178     TIP3     H2       HT       0.417000       1.00800           0
     20335 TIP3     2179     TIP3     OH2      OT      -0.834000       15.9994           0
     20336 TIP3     2179     TIP3     H1       HT       0.417000       1.00800           0
     20337 TIP3     2179     TIP3     H2       HT       0.417000       1.00800           0
     20338 TIP3     2180     TIP3     OH2      OT      -0.834000       15.9994           0
     20339 TIP3     2180     TIP3     H1       HT       0.417000       1.00800           0
     20340 TIP3     2180     TIP3     H2       HT       0.417000       1.00800           0
     20341 TIP3     2181     TIP3     OH2      OT      -0.834000       15.9994           0
     20342 TIP3     2181     TIP3     H1       HT       0.417000       1.00800           0
     20343 TIP3     2181     TIP3     H2       HT       0.417000       1.00800           0
     20344 TIP3     2182     TIP3     OH2      OT      -0.834000       15.9994           0
     20345 TIP3     2182     TIP3     H1       HT       0.417000       1.00800           0
     20346 TIP3     2182     TIP3     H2       HT       0.417000       1.00800           0
     20347 TIP3     2183     TIP3     OH2      OT      -0.834000       15.9994           0
     20348 TIP3     2183     TIP3     H1       HT       0.417000       1.00800           0
     20349 TIP3     2183     TIP3     H2       HT       0.417000       1.00800           0
     20350 TIP3     2184     TIP3     OH2      OT      -0.834000       15.9994           0
     20351 TIP3     2184     TIP3     H1       HT       0.417000       1.00800           0
     20352 TIP3     2184     TIP3     H2       HT       0.417000       1.00800           0
     20353 TIP3     2185     TIP3     OH2      OT      -0.834000       15.9994           0
     20354 TIP3     2185     TIP3     H1       HT       0.417000       1.00800           0
     20355 TIP3     2185     TIP3     H2       HT       0.417000       1.00800           0
     20356 TIP3     2186     TIP3     OH2      OT      -0.834000       15.9994           0
     20357 TIP3     2186     TIP3     H1       HT       0.417000       1.00800           0
     20358 TIP3     2186     TIP3     H2       HT       0.417000       1.00800           0
     20359 TIP3     2187     TIP3     OH2      OT      -0.834000       15.9994           0
     20360 TIP3     2187     TIP3     H1       HT       0.417000       1.00800           0
     20361 TIP3     2187     TIP3     H2       HT       0.417000       1.00800           0
     20362 TIP3     2188     TIP3     OH2      OT      -0.834000       15.9994           0
     20363 TIP3     2188     TIP3     H1       HT       0.417000       1.00800           0
     20364 TIP3     2188     TIP3     H2       HT       0.417000       1.00800           0
     20365 TIP3     2189     TIP3     OH2      OT      -0.834000       15.9994           0
     20366 TIP3     2189     TIP3     H1       HT       0.417000       1.00800           0
     20367 TIP3     2189     TIP3     H2       HT       0.417000       1.00800           0
     20368 TIP3     2190     TIP3     OH2      OT      -0.834000       15.9994           0
     20369 TIP3     2190     TIP3     H1       HT       0.417000       1.00800           0
     20370 TIP3     2190     TIP3     H2       HT       0.417000       1.00800           0
     20371 TIP3     2191     TIP3     OH2      OT      -0.834000       15.9994           0
     20372 TIP3     2191     TIP3     H1       HT       0.417000       1.00800           0
     20373 TIP3     2191     TIP3     H2       HT       0.417000       1.00800           0
     20374 TIP3     2192     TIP3     OH2      OT      -0.834000       15.9994           0
     20375 TIP3     2192     TIP3     H1       HT       0.417000       1.00800           0
     20376 TIP3     2192     TIP3     H2       HT       0.417000       1.00800           0
     20377 TIP3     2193     TIP3     OH2      OT      -0.834000       15.9994           0
     20378 TIP3     2193     TIP3     H1       HT       0.417000       1.00800           0
     20379 TIP3     2193     TIP3     H2       HT       0.417000       1.00800           0
     20380 TIP3     2194     TIP3     OH2      OT      -0.834000       15.9994           0
     20381 TIP3     2194     TIP3     H1       HT       0.417000       1.00800           0
     20382 TIP3     2194     TIP3     H2       HT       0.417000       1.00800           0
     20383 TIP3     2195     TIP3     OH2      OT      -0.834000       15.9994           0
     20384 TIP3     2195     TIP3     H1       HT       0.417000       1.00800           0
     20385 TIP3     2195     TIP3     H2       HT       0.417000       1.00800           0
     20386 TIP3     2196     TIP3     OH2      OT      -0.834000       15.9994           0
     20387 TIP3     2196     TIP3     H1       HT       0.417000       1.00800           0
     20388 TIP3     2196     TIP3     H2       HT       0.417000       1.00800           0
     20389 TIP3     2197     TIP3     OH2      OT      -0.834000       15.9994           0
     20390 TIP3     2197     TIP3     H1       HT       0.417000       1.00800           0
     20391 TIP3     2197     TIP3     H2       HT       0.417000       1.00800           0
     20392 TIP3     2198     TIP3     OH2      OT      -0.834000       15.9994           0
     20393 TIP3     2198     TIP3     H1       HT       0.417000       1.00800           0
     20394 TIP3     2198     TIP3     H2       HT       0.417000       1.00800           0
     20395 TIP3     2199     TIP3     OH2      OT      -0.834000       15.9994           0
     20396 TIP3     2199     TIP3     H1       HT       0.417000       1.00800           0
     20397 TIP3     2199     TIP3     H2       HT       0.417000       1.00800           0
     20398 TIP3     2200     TIP3     OH2      OT      -0.834000       15.9994           0
     20399 TIP3     2200     TIP3     H1       HT       0.417000       1.00800           0
     20400 TIP3     2200     TIP3     H2       HT       0.417000       1.00800           0
     20401 TIP3     2201     TIP3     OH2      OT      -0.834000       15.9994           0
     20402 TIP3     2201     TIP3     H1       HT       0.417000       1.00800           0
     20403 TIP3     2201     TIP3     H2       HT       0.417000       1.00800           0
     20404 TIP3     2202     TIP3     OH2      OT      -0.834000       15.9994           0
     20405 TIP3     2202     TIP3     H1       HT       0.417000       1.00800           0
     20406 TIP3     2202     TIP3     H2       HT       0.417000       1.00800           0
     20407 TIP3     2203     TIP3     OH2      OT      -0.834000       15.9994           0
     20408 TIP3     2203     TIP3     H1       HT       0.417000       1.00800           0
     20409 TIP3     2203     TIP3     H2       HT       0.417000       1.00800           0
     20410 TIP3     2204     TIP3     OH2      OT      -0.834000       15.9994           0
     20411 TIP3     2204     TIP3     H1       HT       0.417000       1.00800           0
     20412 TIP3     2204     TIP3     H2       HT       0.417000       1.00800           0
     20413 TIP3     2205     TIP3     OH2      OT      -0.834000       15.9994           0
     20414 TIP3     2205     TIP3     H1       HT       0.417000       1.00800           0
     20415 TIP3     2205     TIP3     H2       HT       0.417000       1.00800           0
     20416 TIP3     2206     TIP3     OH2      OT      -0.834000       15.9994           0
     20417 TIP3     2206     TIP3     H1       HT       0.417000       1.00800           0
     20418 TIP3     2206     TIP3     H2       HT       0.417000       1.00800           0
     20419 TIP3     2207     TIP3     OH2      OT      -0.834000       15.9994           0
     20420 TIP3     2207     TIP3     H1       HT       0.417000       1.00800           0
     20421 TIP3     2207     TIP3     H2       HT       0.417000       1.00800           0
     20422 TIP3     2208     TIP3     OH2      OT      -0.834000       15.9994           0
     20423 TIP3     2208     TIP3     H1       HT       0.417000       1.00800           0
     20424 TIP3     2208     TIP3     H2       HT       0.417000       1.00800           0
     20425 TIP3     2209     TIP3     OH2      OT      -0.834000       15.9994           0
     20426 TIP3     2209     TIP3     H1       HT       0.417000       1.00800           0
     20427 TIP3     2209     TIP3     H2       HT       0.417000       1.00800           0
     20428 TIP3     2210     TIP3     OH2      OT      -0.834000       15.9994           0
     20429 TIP3     2210     TIP3     H1       HT       0.417000       1.00800           0
     20430 TIP3     2210     TIP3     H2       HT       0.417000       1.00800           0
     20431 TIP3     2211     TIP3     OH2      OT      -0.834000       15.9994           0
     20432 TIP3     2211     TIP3     H1       HT       0.417000       1.00800           0
     20433 TIP3     2211     TIP3     H2       HT       0.417000       1.00800           0
     20434 TIP3     2212     TIP3     OH2      OT      -0.834000       15.9994           0
     20435 TIP3     2212     TIP3     H1       HT       0.417000       1.00800           0
     20436 TIP3     2212     TIP3     H2       HT       0.417000       1.00800           0
     20437 TIP3     2213     TIP3     OH2      OT      -0.834000       15.9994           0
     20438 TIP3     2213     TIP3     H1       HT       0.417000       1.00800           0
     20439 TIP3     2213     TIP3     H2       HT       0.417000       1.00800           0
     20440 TIP3     2214     TIP3     OH2      OT      -0.834000       15.9994           0
     20441 TIP3     2214     TIP3     H1       HT       0.417000       1.00800           0
     20442 TIP3     2214     TIP3     H2       HT       0.417000       1.00800           0
     20443 TIP3     2215     TIP3     OH2      OT      -0.834000       15.9994           0
     20444 TIP3     2215     TIP3     H1       HT       0.417000       1.00800           0
     20445 TIP3     2215     TIP3     H2       HT       0.417000       1.00800           0
     20446 TIP3     2216     TIP3     OH2      OT      -0.834000       15.9994           0
     20447 TIP3     2216     TIP3     H1       HT       0.417000       1.00800           0
     20448 TIP3     2216     TIP3     H2       HT       0.417000       1.00800           0
     20449 TIP3     2217     TIP3     OH2      OT      -0.834000       15.9994           0
     20450 TIP3     2217     TIP3     H1       HT       0.417000       1.00800           0
     20451 TIP3     2217     TIP3     H2       HT       0.417000       1.00800           0
     20452 TIP3     2218     TIP3     OH2      OT      -0.834000       15.9994           0
     20453 TIP3     2218     TIP3     H1       HT       0.417000       1.00800           0
     20454 TIP3     2218     TIP3     H2       HT       0.417000       1.00800           0
     20455 TIP3     2219     TIP3     OH2      OT      -0.834000       15.9994           0
     20456 TIP3     2219     TIP3     H1       HT       0.417000       1.00800           0
     20457 TIP3     2219     TIP3     H2       HT       0.417000       1.00800           0
     20458 TIP3     2220     TIP3     OH2      OT      -0.834000       15.9994           0
     20459 TIP3     2220     TIP3     H1       HT       0.417000       1.00800           0
     20460 TIP3     2220     TIP3     H2       HT       0.417000       1.00800           0
     20461 TIP3     2221     TIP3     OH2      OT      -0.834000       15.9994           0
     20462 TIP3     2221     TIP3     H1       HT       0.417000       1.00800           0
     20463 TIP3     2221     TIP3     H2       HT       0.417000       1.00800           0
     20464 TIP3     2222     TIP3     OH2      OT      -0.834000       15.9994           0
     20465 TIP3     2222     TIP3     H1       HT       0.417000       1.00800           0
     20466 TIP3     2222     TIP3     H2       HT       0.417000       1.00800           0
     20467 TIP3     2223     TIP3     OH2      OT      -0.834000       15.9994           0
     20468 TIP3     2223     TIP3     H1       HT       0.417000       1.00800           0
     20469 TIP3     2223     TIP3     H2       HT       0.417000       1.00800           0
     20470 TIP3     2224     TIP3     OH2      OT      -0.834000       15.9994           0
     20471 TIP3     2224     TIP3     H1       HT       0.417000       1.00800           0
     20472 TIP3     2224     TIP3     H2       HT       0.417000       1.00800           0
     20473 TIP3     2225     TIP3     OH2      OT      -0.834000       15.9994           0
     20474 TIP3     2225     TIP3     H1       HT       0.417000       1.00800           0
     20475 TIP3     2225     TIP3     H2       HT       0.417000       1.00800           0
     20476 TIP3     2226     TIP3     OH2      OT      -0.834000       15.9994           0
     20477 TIP3     2226     TIP3     H1       HT       0.417000       1.00800           0
     20478 TIP3     2226     TIP3     H2       HT       0.417000       1.00800           0
     20479 TIP3     2227     TIP3     OH2      OT      -0.834000       15.9994           0
     20480 TIP3     2227     TIP3     H1       HT       0.417000       1.00800           0
     20481 TIP3     2227     TIP3     H2       HT       0.417000       1.00800           0
     20482 TIP3     2228     TIP3     OH2      OT      -0.834000       15.9994           0
     20483 TIP3     2228     TIP3     H1       HT       0.417000       1.00800           0
     20484 TIP3     2228     TIP3     H2       HT       0.417000       1.00800           0
     20485 TIP3     2229     TIP3     OH2      OT      -0.834000       15.9994           0
     20486 TIP3     2229     TIP3     H1       HT       0.417000       1.00800           0
     20487 TIP3     2229     TIP3     H2       HT       0.417000       1.00800           0
     20488 TIP3     2230     TIP3     OH2      OT      -0.834000       15.9994           0
     20489 TIP3     2230     TIP3     H1       HT       0.417000       1.00800           0
     20490 TIP3     2230     TIP3     H2       HT       0.417000       1.00800           0
     20491 TIP3     2231     TIP3     OH2      OT      -0.834000       15.9994           0
     20492 TIP3     2231     TIP3     H1       HT       0.417000       1.00800           0
     20493 TIP3     2231     TIP3     H2       HT       0.417000       1.00800           0
     20494 TIP3     2232     TIP3     OH2      OT      -0.834000       15.9994           0
     20495 TIP3     2232     TIP3     H1       HT       0.417000       1.00800           0
     20496 TIP3     2232     TIP3     H2       HT       0.417000       1.00800           0
     20497 TIP3     2233     TIP3     OH2      OT      -0.834000       15.9994           0
     20498 TIP3     2233     TIP3     H1       HT       0.417000       1.00800           0
     20499 TIP3     2233     TIP3     H2       HT       0.417000       1.00800           0
     20500 TIP3     2234     TIP3     OH2      OT      -0.834000       15.9994           0
     20501 TIP3     2234     TIP3     H1       HT       0.417000       1.00800           0
     20502 TIP3     2234     TIP3     H2       HT       0.417000       1.00800           0
     20503 TIP3     2235     TIP3     OH2      OT      -0.834000       15.9994           0
     20504 TIP3     2235     TIP3     H1       HT       0.417000       1.00800           0
     20505 TIP3     2235     TIP3     H2       HT       0.417000       1.00800           0
     20506 TIP3     2236     TIP3     OH2      OT      -0.834000       15.9994           0
     20507 TIP3     2236     TIP3     H1       HT       0.417000       1.00800           0
     20508 TIP3     2236     TIP3     H2       HT       0.417000       1.00800           0
     20509 TIP3     2237     TIP3     OH2      OT      -0.834000       15.9994           0
     20510 TIP3     2237     TIP3     H1       HT       0.417000       1.00800           0
     20511 TIP3     2237     TIP3     H2       HT       0.417000       1.00800           0
     20512 TIP3     2238     TIP3     OH2      OT      -0.834000       15.9994           0
     20513 TIP3     2238     TIP3     H1       HT       0.417000       1.00800           0
     20514 TIP3     2238     TIP3     H2       HT       0.417000       1.00800           0
     20515 TIP3     2239     TIP3     OH2      OT      -0.834000       15.9994           0
     20516 TIP3     2239     TIP3     H1       HT       0.417000       1.00800           0
     20517 TIP3     2239     TIP3     H2       HT       0.417000       1.00800           0
     20518 TIP3     2240     TIP3     OH2      OT      -0.834000       15.9994           0
     20519 TIP3     2240     TIP3     H1       HT       0.417000       1.00800           0
     20520 TIP3     2240     TIP3     H2       HT       0.417000       1.00800           0
     20521 TIP3     2241     TIP3     OH2      OT      -0.834000       15.9994           0
     20522 TIP3     2241     TIP3     H1       HT       0.417000       1.00800           0
     20523 TIP3     2241     TIP3     H2       HT       0.417000       1.00800           0
     20524 TIP3     2242     TIP3     OH2      OT      -0.834000       15.9994           0
     20525 TIP3     2242     TIP3     H1       HT       0.417000       1.00800           0
     20526 TIP3     2242     TIP3     H2       HT       0.417000       1.00800           0
     20527 TIP3     2243     TIP3     OH2      OT      -0.834000       15.9994           0
     20528 TIP3     2243     TIP3     H1       HT       0.417000       1.00800           0
     20529 TIP3     2243     TIP3     H2       HT       0.417000       1.00800           0
     20530 TIP3     2244     TIP3     OH2      OT      -0.834000       15.9994           0
     20531 TIP3     2244     TIP3     H1       HT       0.417000       1.00800           0
     20532 TIP3     2244     TIP3     H2       HT       0.417000       1.00800           0
     20533 TIP3     2245     TIP3     OH2      OT      -0.834000       15.9994           0
     20534 TIP3     2245     TIP3     H1       HT       0.417000       1.00800           0
     20535 TIP3     2245     TIP3     H2       HT       0.417000       1.00800           0
     20536 TIP3     2246     TIP3     OH2      OT      -0.834000       15.9994           0
     20537 TIP3     2246     TIP3     H1       HT       0.417000       1.00800           0
     20538 TIP3     2246     TIP3     H2       HT       0.417000       1.00800           0
     20539 TIP3     2247     TIP3     OH2      OT      -0.834000       15.9994           0
     20540 TIP3     2247     TIP3     H1       HT       0.417000       1.00800           0
     20541 TIP3     2247     TIP3     H2       HT       0.417000       1.00800           0
     20542 TIP3     2248     TIP3     OH2      OT      -0.834000       15.9994           0
     20543 TIP3     2248     TIP3     H1       HT       0.417000       1.00800           0
     20544 TIP3     2248     TIP3     H2       HT       0.417000       1.00800           0
     20545 TIP3     2249     TIP3     OH2      OT      -0.834000       15.9994           0
     20546 TIP3     2249     TIP3     H1       HT       0.417000       1.00800           0
     20547 TIP3     2249     TIP3     H2       HT       0.417000       1.00800           0
     20548 TIP3     2250     TIP3     OH2      OT      -0.834000       15.9994           0
     20549 TIP3     2250     TIP3     H1       HT       0.417000       1.00800           0
     20550 TIP3     2250     TIP3     H2       HT       0.417000       1.00800           0
     20551 TIP3     2251     TIP3     OH2      OT      -0.834000       15.9994           0
     20552 TIP3     2251     TIP3     H1       HT       0.417000       1.00800           0
     20553 TIP3     2251     TIP3     H2       HT       0.417000       1.00800           0
     20554 TIP3     2252     TIP3     OH2      OT      -0.834000       15.9994           0
     20555 TIP3     2252     TIP3     H1       HT       0.417000       1.00800           0
     20556 TIP3     2252     TIP3     H2       HT       0.417000       1.00800           0
     20557 TIP3     2253     TIP3     OH2      OT      -0.834000       15.9994           0
     20558 TIP3     2253     TIP3     H1       HT       0.417000       1.00800           0
     20559 TIP3     2253     TIP3     H2       HT       0.417000       1.00800           0
     20560 TIP3     2254     TIP3     OH2      OT      -0.834000       15.9994           0
     20561 TIP3     2254     TIP3     H1       HT       0.417000       1.00800           0
     20562 TIP3     2254     TIP3     H2       HT       0.417000       1.00800           0
     20563 TIP3     2255     TIP3     OH2      OT      -0.834000       15.9994           0
     20564 TIP3     2255     TIP3     H1       HT       0.417000       1.00800           0
     20565 TIP3     2255     TIP3     H2       HT       0.417000       1.00800           0
     20566 TIP3     2256     TIP3     OH2      OT      -0.834000       15.9994           0
     20567 TIP3     2256     TIP3     H1       HT       0.417000       1.00800           0
     20568 TIP3     2256     TIP3     H2       HT       0.417000       1.00800           0
     20569 TIP3     2257     TIP3     OH2      OT      -0.834000       15.9994           0
     20570 TIP3     2257     TIP3     H1       HT       0.417000       1.00800           0
     20571 TIP3     2257     TIP3     H2       HT       0.417000       1.00800           0
     20572 TIP3     2258     TIP3     OH2      OT      -0.834000       15.9994           0
     20573 TIP3     2258     TIP3     H1       HT       0.417000       1.00800           0
     20574 TIP3     2258     TIP3     H2       HT       0.417000       1.00800           0
     20575 TIP3     2259     TIP3     OH2      OT      -0.834000       15.9994           0
     20576 TIP3     2259     TIP3     H1       HT       0.417000       1.00800           0
     20577 TIP3     2259     TIP3     H2       HT       0.417000       1.00800           0
     20578 TIP3     2260     TIP3     OH2      OT      -0.834000       15.9994           0
     20579 TIP3     2260     TIP3     H1       HT       0.417000       1.00800           0
     20580 TIP3     2260     TIP3     H2       HT       0.417000       1.00800           0
     20581 TIP3     2261     TIP3     OH2      OT      -0.834000       15.9994           0
     20582 TIP3     2261     TIP3     H1       HT       0.417000       1.00800           0
     20583 TIP3     2261     TIP3     H2       HT       0.417000       1.00800           0
     20584 TIP3     2262     TIP3     OH2      OT      -0.834000       15.9994           0
     20585 TIP3     2262     TIP3     H1       HT       0.417000       1.00800           0
     20586 TIP3     2262     TIP3     H2       HT       0.417000       1.00800           0
     20587 TIP3     2263     TIP3     OH2      OT      -0.834000       15.9994           0
     20588 TIP3     2263     TIP3     H1       HT       0.417000       1.00800           0
     20589 TIP3     2263     TIP3     H2       HT       0.417000       1.00800           0
     20590 TIP3     2264     TIP3     OH2      OT      -0.834000       15.9994           0
     20591 TIP3     2264     TIP3     H1       HT       0.417000       1.00800           0
     20592 TIP3     2264     TIP3     H2       HT       0.417000       1.00800           0
     20593 TIP3     2265     TIP3     OH2      OT      -0.834000       15.9994           0
     20594 TIP3     2265     TIP3     H1       HT       0.417000       1.00800           0
     20595 TIP3     2265     TIP3     H2       HT       0.417000       1.00800           0
     20596 TIP3     2266     TIP3     OH2      OT      -0.834000       15.9994           0
     20597 TIP3     2266     TIP3     H1       HT       0.417000       1.00800           0
     20598 TIP3     2266     TIP3     H2       HT       0.417000       1.00800           0
     20599 TIP3     2267     TIP3     OH2      OT      -0.834000       15.9994           0
     20600 TIP3     2267     TIP3     H1       HT       0.417000       1.00800           0
     20601 TIP3     2267     TIP3     H2       HT       0.417000       1.00800           0
     20602 TIP3     2268     TIP3     OH2      OT      -0.834000       15.9994           0
     20603 TIP3     2268     TIP3     H1       HT       0.417000       1.00800           0
     20604 TIP3     2268     TIP3     H2       HT       0.417000       1.00800           0
     20605 TIP3     2269     TIP3     OH2      OT      -0.834000       15.9994           0
     20606 TIP3     2269     TIP3     H1       HT       0.417000       1.00800           0
     20607 TIP3     2269     TIP3     H2       HT       0.417000       1.00800           0
     20608 TIP3     2270     TIP3     OH2      OT      -0.834000       15.9994           0
     20609 TIP3     2270     TIP3     H1       HT       0.417000       1.00800           0
     20610 TIP3     2270     TIP3     H2       HT       0.417000       1.00800           0
     20611 TIP3     2271     TIP3     OH2      OT      -0.834000       15.9994           0
     20612 TIP3     2271     TIP3     H1       HT       0.417000       1.00800           0
     20613 TIP3     2271     TIP3     H2       HT       0.417000       1.00800           0
     20614 TIP3     2272     TIP3     OH2      OT      -0.834000       15.9994           0
     20615 TIP3     2272     TIP3     H1       HT       0.417000       1.00800           0
     20616 TIP3     2272     TIP3     H2       HT       0.417000       1.00800           0
     20617 TIP3     2273     TIP3     OH2      OT      -0.834000       15.9994           0
     20618 TIP3     2273     TIP3     H1       HT       0.417000       1.00800           0
     20619 TIP3     2273     TIP3     H2       HT       0.417000       1.00800           0
     20620 TIP3     2274     TIP3     OH2      OT      -0.834000       15.9994           0
     20621 TIP3     2274     TIP3     H1       HT       0.417000       1.00800           0
     20622 TIP3     2274     TIP3     H2       HT       0.417000       1.00800           0
     20623 TIP3     2275     TIP3     OH2      OT      -0.834000       15.9994           0
     20624 TIP3     2275     TIP3     H1       HT       0.417000       1.00800           0
     20625 TIP3     2275     TIP3     H2       HT       0.417000       1.00800           0
     20626 TIP3     2276     TIP3     OH2      OT      -0.834000       15.9994           0
     20627 TIP3     2276     TIP3     H1       HT       0.417000       1.00800           0
     20628 TIP3     2276     TIP3     H2       HT       0.417000       1.00800           0
     20629 TIP3     2277     TIP3     OH2      OT      -0.834000       15.9994           0
     20630 TIP3     2277     TIP3     H1       HT       0.417000       1.00800           0
     20631 TIP3     2277     TIP3     H2       HT       0.417000       1.00800           0
     20632 TIP3     2278     TIP3     OH2      OT      -0.834000       15.9994           0
     20633 TIP3     2278     TIP3     H1       HT       0.417000       1.00800           0
     20634 TIP3     2278     TIP3     H2       HT       0.417000       1.00800           0
     20635 TIP3     2279     TIP3     OH2      OT      -0.834000       15.9994           0
     20636 TIP3     2279     TIP3     H1       HT       0.417000       1.00800           0
     20637 TIP3     2279     TIP3     H2       HT       0.417000       1.00800           0
     20638 TIP3     2280     TIP3     OH2      OT      -0.834000       15.9994           0
     20639 TIP3     2280     TIP3     H1       HT       0.417000       1.00800           0
     20640 TIP3     2280     TIP3     H2       HT       0.417000       1.00800           0
     20641 TIP3     2281     TIP3     OH2      OT      -0.834000       15.9994           0
     20642 TIP3     2281     TIP3     H1       HT       0.417000       1.00800           0
     20643 TIP3     2281     TIP3     H2       HT       0.417000       1.00800           0
     20644 TIP3     2282     TIP3     OH2      OT      -0.834000       15.9994           0
     20645 TIP3     2282     TIP3     H1       HT       0.417000       1.00800           0
     20646 TIP3     2282     TIP3     H2       HT       0.417000       1.00800           0
     20647 TIP3     2283     TIP3     OH2      OT      -0.834000       15.9994           0
     20648 TIP3     2283     TIP3     H1       HT       0.417000       1.00800           0
     20649 TIP3     2283     TIP3     H2       HT       0.417000       1.00800           0
     20650 TIP3     2284     TIP3     OH2      OT      -0.834000       15.9994           0
     20651 TIP3     2284     TIP3     H1       HT       0.417000       1.00800           0
     20652 TIP3     2284     TIP3     H2       HT       0.417000       1.00800           0
     20653 TIP3     2285     TIP3     OH2      OT      -0.834000       15.9994           0
     20654 TIP3     2285     TIP3     H1       HT       0.417000       1.00800           0
     20655 TIP3     2285     TIP3     H2       HT       0.417000       1.00800           0
     20656 TIP3     2286     TIP3     OH2      OT      -0.834000       15.9994           0
     20657 TIP3     2286     TIP3     H1       HT       0.417000       1.00800           0
     20658 TIP3     2286     TIP3     H2       HT       0.417000       1.00800           0
     20659 TIP3     2287     TIP3     OH2      OT      -0.834000       15.9994           0
     20660 TIP3     2287     TIP3     H1       HT       0.417000       1.00800           0
     20661 TIP3     2287     TIP3     H2       HT       0.417000       1.00800           0
     20662 TIP3     2288     TIP3     OH2      OT      -0.834000       15.9994           0
     20663 TIP3     2288     TIP3     H1       HT       0.417000       1.00800           0
     20664 TIP3     2288     TIP3     H2       HT       0.417000       1.00800           0
     20665 TIP3     2289     TIP3     OH2      OT      -0.834000       15.9994           0
     20666 TIP3     2289     TIP3     H1       HT       0.417000       1.00800           0
     20667 TIP3     2289     TIP3     H2       HT       0.417000       1.00800           0
     20668 TIP3     2290     TIP3     OH2      OT      -0.834000       15.9994           0
     20669 TIP3     2290     TIP3     H1       HT       0.417000       1.00800           0
     20670 TIP3     2290     TIP3     H2       HT       0.417000       1.00800           0
     20671 TIP3     2291     TIP3     OH2      OT      -0.834000       15.9994           0
     20672 TIP3     2291     TIP3     H1       HT       0.417000       1.00800           0
     20673 TIP3     2291     TIP3     H2       HT       0.417000       1.00800           0
     20674 TIP3     2292     TIP3     OH2      OT      -0.834000       15.9994           0
     20675 TIP3     2292     TIP3     H1       HT       0.417000       1.00800           0
     20676 TIP3     2292     TIP3     H2       HT       0.417000       1.00800           0
     20677 TIP3     2293     TIP3     OH2      OT      -0.834000       15.9994           0
     20678 TIP3     2293     TIP3     H1       HT       0.417000       1.00800           0
     20679 TIP3     2293     TIP3     H2       HT       0.417000       1.00800           0
     20680 TIP3     2294     TIP3     OH2      OT      -0.834000       15.9994           0
     20681 TIP3     2294     TIP3     H1       HT       0.417000       1.00800           0
     20682 TIP3     2294     TIP3     H2       HT       0.417000       1.00800           0
     20683 TIP3     2295     TIP3     OH2      OT      -0.834000       15.9994           0
     20684 TIP3     2295     TIP3     H1       HT       0.417000       1.00800           0
     20685 TIP3     2295     TIP3     H2       HT       0.417000       1.00800           0
     20686 TIP3     2296     TIP3     OH2      OT      -0.834000       15.9994           0
     20687 TIP3     2296     TIP3     H1       HT       0.417000       1.00800           0
     20688 TIP3     2296     TIP3     H2       HT       0.417000       1.00800           0
     20689 TIP3     2297     TIP3     OH2      OT      -0.834000       15.9994           0
     20690 TIP3     2297     TIP3     H1       HT       0.417000       1.00800           0
     20691 TIP3     2297     TIP3     H2       HT       0.417000       1.00800           0
     20692 TIP3     2298     TIP3     OH2      OT      -0.834000       15.9994           0
     20693 TIP3     2298     TIP3     H1       HT       0.417000       1.00800           0
     20694 TIP3     2298     TIP3     H2       HT       0.417000       1.00800           0
     20695 TIP3     2299     TIP3     OH2      OT      -0.834000       15.9994           0
     20696 TIP3     2299     TIP3     H1       HT       0.417000       1.00800           0
     20697 TIP3     2299     TIP3     H2       HT       0.417000       1.00800           0
     20698 TIP3     2300     TIP3     OH2      OT      -0.834000       15.9994           0
     20699 TIP3     2300     TIP3     H1       HT       0.417000       1.00800           0
     20700 TIP3     2300     TIP3     H2       HT       0.417000       1.00800           0
     20701 TIP3     2301     TIP3     OH2      OT      -0.834000       15.9994           0
     20702 TIP3     2301     TIP3     H1       HT       0.417000       1.00800           0
     20703 TIP3     2301     TIP3     H2       HT       0.417000       1.00800           0
     20704 TIP3     2302     TIP3     OH2      OT      -0.834000       15.9994           0
     20705 TIP3     2302     TIP3     H1       HT       0.417000       1.00800           0
     20706 TIP3     2302     TIP3     H2       HT       0.417000       1.00800           0
     20707 TIP3     2303     TIP3     OH2      OT      -0.834000       15.9994           0
     20708 TIP3     2303     TIP3     H1       HT       0.417000       1.00800           0
     20709 TIP3     2303     TIP3     H2       HT       0.417000       1.00800           0
     20710 TIP3     2304     TIP3     OH2      OT      -0.834000       15.9994           0
     20711 TIP3     2304     TIP3     H1       HT       0.417000       1.00800           0
     20712 TIP3     2304     TIP3     H2       HT       0.417000       1.00800           0
     20713 TIP3     2305     TIP3     OH2      OT      -0.834000       15.9994           0
     20714 TIP3     2305     TIP3     H1       HT       0.417000       1.00800           0
     20715 TIP3     2305     TIP3     H2       HT       0.417000       1.00800           0
     20716 TIP3     2306     TIP3     OH2      OT      -0.834000       15.9994           0
     20717 TIP3     2306     TIP3     H1       HT       0.417000       1.00800           0
     20718 TIP3     2306     TIP3     H2       HT       0.417000       1.00800           0
     20719 TIP3     2307     TIP3     OH2      OT      -0.834000       15.9994           0
     20720 TIP3     2307     TIP3     H1       HT       0.417000       1.00800           0
     20721 TIP3     2307     TIP3     H2       HT       0.417000       1.00800           0
     20722 TIP3     2308     TIP3     OH2      OT      -0.834000       15.9994           0
     20723 TIP3     2308     TIP3     H1       HT       0.417000       1.00800           0
     20724 TIP3     2308     TIP3     H2       HT       0.417000       1.00800           0
     20725 TIP3     2309     TIP3     OH2      OT      -0.834000       15.9994           0
     20726 TIP3     2309     TIP3     H1       HT       0.417000       1.00800           0
     20727 TIP3     2309     TIP3     H2       HT       0.417000       1.00800           0
     20728 TIP3     2310     TIP3     OH2      OT      -0.834000       15.9994           0
     20729 TIP3     2310     TIP3     H1       HT       0.417000       1.00800           0
     20730 TIP3     2310     TIP3     H2       HT       0.417000       1.00800           0
     20731 TIP3     2311     TIP3     OH2      OT      -0.834000       15.9994           0
     20732 TIP3     2311     TIP3     H1       HT       0.417000       1.00800           0
     20733 TIP3     2311     TIP3     H2       HT       0.417000       1.00800           0
     20734 TIP3     2312     TIP3     OH2      OT      -0.834000       15.9994           0
     20735 TIP3     2312     TIP3     H1       HT       0.417000       1.00800           0
     20736 TIP3     2312     TIP3     H2       HT       0.417000       1.00800           0
     20737 TIP3     2313     TIP3     OH2      OT      -0.834000       15.9994           0
     20738 TIP3     2313     TIP3     H1       HT       0.417000       1.00800           0
     20739 TIP3     2313     TIP3     H2       HT       0.417000       1.00800           0
     20740 TIP3     2314     TIP3     OH2      OT      -0.834000       15.9994           0
     20741 TIP3     2314     TIP3     H1       HT       0.417000       1.00800           0
     20742 TIP3     2314     TIP3     H2       HT       0.417000       1.00800           0
     20743 TIP3     2315     TIP3     OH2      OT      -0.834000       15.9994           0
     20744 TIP3     2315     TIP3     H1       HT       0.417000       1.00800           0
     20745 TIP3     2315     TIP3     H2       HT       0.417000       1.00800           0
     20746 TIP3     2316     TIP3     OH2      OT      -0.834000       15.9994           0
     20747 TIP3     2316     TIP3     H1       HT       0.417000       1.00800           0
     20748 TIP3     2316     TIP3     H2       HT       0.417000       1.00800           0
     20749 TIP3     2317     TIP3     OH2      OT      -0.834000       15.9994           0
     20750 TIP3     2317     TIP3     H1       HT       0.417000       1.00800           0
     20751 TIP3     2317     TIP3     H2       HT       0.417000       1.00800           0
     20752 TIP3     2318     TIP3     OH2      OT      -0.834000       15.9994           0
     20753 TIP3     2318     TIP3     H1       HT       0.417000       1.00800           0
     20754 TIP3     2318     TIP3     H2       HT       0.417000       1.00800           0
     20755 TIP3     2319     TIP3     OH2      OT      -0.834000       15.9994           0
     20756 TIP3     2319     TIP3     H1       HT       0.417000       1.00800           0
     20757 TIP3     2319     TIP3     H2       HT       0.417000       1.00800           0
     20758 TIP3     2320     TIP3     OH2      OT      -0.834000       15.9994           0
     20759 TIP3     2320     TIP3     H1       HT       0.417000       1.00800           0
     20760 TIP3     2320     TIP3     H2       HT       0.417000       1.00800           0
     20761 TIP3     2321     TIP3     OH2      OT      -0.834000       15.9994           0
     20762 TIP3     2321     TIP3     H1       HT       0.417000       1.00800           0
     20763 TIP3     2321     TIP3     H2       HT       0.417000       1.00800           0
     20764 TIP3     2322     TIP3     OH2      OT      -0.834000       15.9994           0
     20765 TIP3     2322     TIP3     H1       HT       0.417000       1.00800           0
     20766 TIP3     2322     TIP3     H2       HT       0.417000       1.00800           0
     20767 TIP3     2323     TIP3     OH2      OT      -0.834000       15.9994           0
     20768 TIP3     2323     TIP3     H1       HT       0.417000       1.00800           0
     20769 TIP3     2323     TIP3     H2       HT       0.417000       1.00800           0
     20770 TIP3     2324     TIP3     OH2      OT      -0.834000       15.9994           0
     20771 TIP3     2324     TIP3     H1       HT       0.417000       1.00800           0
     20772 TIP3     2324     TIP3     H2       HT       0.417000       1.00800           0
     20773 TIP3     2325     TIP3     OH2      OT      -0.834000       15.9994           0
     20774 TIP3     2325     TIP3     H1       HT       0.417000       1.00800           0
     20775 TIP3     2325     TIP3     H2       HT       0.417000       1.00800           0
     20776 TIP3     2326     TIP3     OH2      OT      -0.834000       15.9994           0
     20777 TIP3     2326     TIP3     H1       HT       0.417000       1.00800           0
     20778 TIP3     2326     TIP3     H2       HT       0.417000       1.00800           0
     20779 TIP3     2327     TIP3     OH2      OT      -0.834000       15.9994           0
     20780 TIP3     2327     TIP3     H1       HT       0.417000       1.00800           0
     20781 TIP3     2327     TIP3     H2       HT       0.417000       1.00800           0
     20782 TIP3     2328     TIP3     OH2      OT      -0.834000       15.9994           0
     20783 TIP3     2328     TIP3     H1       HT       0.417000       1.00800           0
     20784 TIP3     2328     TIP3     H2       HT       0.417000       1.00800           0
     20785 TIP3     2329     TIP3     OH2      OT      -0.834000       15.9994           0
     20786 TIP3     2329     TIP3     H1       HT       0.417000       1.00800           0
     20787 TIP3     2329     TIP3     H2       HT       0.417000       1.00800           0
     20788 TIP3     2330     TIP3     OH2      OT      -0.834000       15.9994           0
     20789 TIP3     2330     TIP3     H1       HT       0.417000       1.00800           0
     20790 TIP3     2330     TIP3     H2       HT       0.417000       1.00800           0
     20791 TIP3     2331     TIP3     OH2      OT      -0.834000       15.9994           0
     20792 TIP3     2331     TIP3     H1       HT       0.417000       1.00800           0
     20793 TIP3     2331     TIP3     H2       HT       0.417000       1.00800           0
     20794 TIP3     2332     TIP3     OH2      OT      -0.834000       15.9994           0
     20795 TIP3     2332     TIP3     H1       HT       0.417000       1.00800           0
     20796 TIP3     2332     TIP3     H2       HT       0.417000       1.00800           0
     20797 TIP3     2333     TIP3     OH2      OT      -0.834000       15.9994           0
     20798 TIP3     2333     TIP3     H1       HT       0.417000       1.00800           0
     20799 TIP3     2333     TIP3     H2       HT       0.417000       1.00800           0
     20800 TIP3     2334     TIP3     OH2      OT      -0.834000       15.9994           0
     20801 TIP3     2334     TIP3     H1       HT       0.417000       1.00800           0
     20802 TIP3     2334     TIP3     H2       HT       0.417000       1.00800           0
     20803 TIP3     2335     TIP3     OH2      OT      -0.834000       15.9994           0
     20804 TIP3     2335     TIP3     H1       HT       0.417000       1.00800           0
     20805 TIP3     2335     TIP3     H2       HT       0.417000       1.00800           0
     20806 TIP3     2336     TIP3     OH2      OT      -0.834000       15.9994           0
     20807 TIP3     2336     TIP3     H1       HT       0.417000       1.00800           0
     20808 TIP3     2336     TIP3     H2       HT       0.417000       1.00800           0
     20809 TIP3     2337     TIP3     OH2      OT      -0.834000       15.9994           0
     20810 TIP3     2337     TIP3     H1       HT       0.417000       1.00800           0
     20811 TIP3     2337     TIP3     H2       HT       0.417000       1.00800           0
     20812 TIP3     2338     TIP3     OH2      OT      -0.834000       15.9994           0
     20813 TIP3     2338     TIP3     H1       HT       0.417000       1.00800           0
     20814 TIP3     2338     TIP3     H2       HT       0.417000       1.00800           0
     20815 TIP3     2339     TIP3     OH2      OT      -0.834000       15.9994           0
     20816 TIP3     2339     TIP3     H1       HT       0.417000       1.00800           0
     20817 TIP3     2339     TIP3     H2       HT       0.417000       1.00800           0
     20818 TIP3     2340     TIP3     OH2      OT      -0.834000       15.9994           0
     20819 TIP3     2340     TIP3     H1       HT       0.417000       1.00800           0
     20820 TIP3     2340     TIP3     H2       HT       0.417000       1.00800           0
     20821 TIP3     2341     TIP3     OH2      OT      -0.834000       15.9994           0
     20822 TIP3     2341     TIP3     H1       HT       0.417000       1.00800           0
     20823 TIP3     2341     TIP3     H2       HT       0.417000       1.00800           0
     20824 TIP3     2342     TIP3     OH2      OT      -0.834000       15.9994           0
     20825 TIP3     2342     TIP3     H1       HT       0.417000       1.00800           0
     20826 TIP3     2342     TIP3     H2       HT       0.417000       1.00800           0
     20827 TIP3     2343     TIP3     OH2      OT      -0.834000       15.9994           0
     20828 TIP3     2343     TIP3     H1       HT       0.417000       1.00800           0
     20829 TIP3     2343     TIP3     H2       HT       0.417000       1.00800           0
     20830 TIP3     2344     TIP3     OH2      OT      -0.834000       15.9994           0
     20831 TIP3     2344     TIP3     H1       HT       0.417000       1.00800           0
     20832 TIP3     2344     TIP3     H2       HT       0.417000       1.00800           0
     20833 TIP3     2345     TIP3     OH2      OT      -0.834000       15.9994           0
     20834 TIP3     2345     TIP3     H1       HT       0.417000       1.00800           0
     20835 TIP3     2345     TIP3     H2       HT       0.417000       1.00800           0
     20836 TIP3     2346     TIP3     OH2      OT      -0.834000       15.9994           0
     20837 TIP3     2346     TIP3     H1       HT       0.417000       1.00800           0
     20838 TIP3     2346     TIP3     H2       HT       0.417000       1.00800           0
     20839 TIP3     2347     TIP3     OH2      OT      -0.834000       15.9994           0
     20840 TIP3     2347     TIP3     H1       HT       0.417000       1.00800           0
     20841 TIP3     2347     TIP3     H2       HT       0.417000       1.00800           0
     20842 TIP3     2348     TIP3     OH2      OT      -0.834000       15.9994           0
     20843 TIP3     2348     TIP3     H1       HT       0.417000       1.00800           0
     20844 TIP3     2348     TIP3     H2       HT       0.417000       1.00800           0
     20845 TIP3     2349     TIP3     OH2      OT      -0.834000       15.9994           0
     20846 TIP3     2349     TIP3     H1       HT       0.417000       1.00800           0
     20847 TIP3     2349     TIP3     H2       HT       0.417000       1.00800           0
     20848 TIP3     2350     TIP3     OH2      OT      -0.834000       15.9994           0
     20849 TIP3     2350     TIP3     H1       HT       0.417000       1.00800           0
     20850 TIP3     2350     TIP3     H2       HT       0.417000       1.00800           0
     20851 TIP3     2351     TIP3     OH2      OT      -0.834000       15.9994           0
     20852 TIP3     2351     TIP3     H1       HT       0.417000       1.00800           0
     20853 TIP3     2351     TIP3     H2       HT       0.417000       1.00800           0
     20854 TIP3     2352     TIP3     OH2      OT      -0.834000       15.9994           0
     20855 TIP3     2352     TIP3     H1       HT       0.417000       1.00800           0
     20856 TIP3     2352     TIP3     H2       HT       0.417000       1.00800           0
     20857 TIP3     2353     TIP3     OH2      OT      -0.834000       15.9994           0
     20858 TIP3     2353     TIP3     H1       HT       0.417000       1.00800           0
     20859 TIP3     2353     TIP3     H2       HT       0.417000       1.00800           0
     20860 TIP3     2354     TIP3     OH2      OT      -0.834000       15.9994           0
     20861 TIP3     2354     TIP3     H1       HT       0.417000       1.00800           0
     20862 TIP3     2354     TIP3     H2       HT       0.417000       1.00800           0
     20863 TIP3     2355     TIP3     OH2      OT      -0.834000       15.9994           0
     20864 TIP3     2355     TIP3     H1       HT       0.417000       1.00800           0
     20865 TIP3     2355     TIP3     H2       HT       0.417000       1.00800           0
     20866 TIP3     2356     TIP3     OH2      OT      -0.834000       15.9994           0
     20867 TIP3     2356     TIP3     H1       HT       0.417000       1.00800           0
     20868 TIP3     2356     TIP3     H2       HT       0.417000       1.00800           0
     20869 TIP3     2357     TIP3     OH2      OT      -0.834000       15.9994           0
     20870 TIP3     2357     TIP3     H1       HT       0.417000       1.00800           0
     20871 TIP3     2357     TIP3     H2       HT       0.417000       1.00800           0
     20872 TIP3     2358     TIP3     OH2      OT      -0.834000       15.9994           0
     20873 TIP3     2358     TIP3     H1       HT       0.417000       1.00800           0
     20874 TIP3     2358     TIP3     H2       HT       0.417000       1.00800           0
     20875 TIP3     2359     TIP3     OH2      OT      -0.834000       15.9994           0
     20876 TIP3     2359     TIP3     H1       HT       0.417000       1.00800           0
     20877 TIP3     2359     TIP3     H2       HT       0.417000       1.00800           0
     20878 TIP3     2360     TIP3     OH2      OT      -0.834000       15.9994           0
     20879 TIP3     2360     TIP3     H1       HT       0.417000       1.00800           0
     20880 TIP3     2360     TIP3     H2       HT       0.417000       1.00800           0
     20881 TIP3     2361     TIP3     OH2      OT      -0.834000       15.9994           0
     20882 TIP3     2361     TIP3     H1       HT       0.417000       1.00800           0
     20883 TIP3     2361     TIP3     H2       HT       0.417000       1.00800           0
     20884 TIP3     2362     TIP3     OH2      OT      -0.834000       15.9994           0
     20885 TIP3     2362     TIP3     H1       HT       0.417000       1.00800           0
     20886 TIP3     2362     TIP3     H2       HT       0.417000       1.00800           0
     20887 TIP3     2363     TIP3     OH2      OT      -0.834000       15.9994           0
     20888 TIP3     2363     TIP3     H1       HT       0.417000       1.00800           0
     20889 TIP3     2363     TIP3     H2       HT       0.417000       1.00800           0
     20890 TIP3     2364     TIP3     OH2      OT      -0.834000       15.9994           0
     20891 TIP3     2364     TIP3     H1       HT       0.417000       1.00800           0
     20892 TIP3     2364     TIP3     H2       HT       0.417000       1.00800           0
     20893 TIP3     2365     TIP3     OH2      OT      -0.834000       15.9994           0
     20894 TIP3     2365     TIP3     H1       HT       0.417000       1.00800           0
     20895 TIP3     2365     TIP3     H2       HT       0.417000       1.00800           0
     20896 TIP3     2366     TIP3     OH2      OT      -0.834000       15.9994           0
     20897 TIP3     2366     TIP3     H1       HT       0.417000       1.00800           0
     20898 TIP3     2366     TIP3     H2       HT       0.417000       1.00800           0
     20899 TIP3     2367     TIP3     OH2      OT      -0.834000       15.9994           0
     20900 TIP3     2367     TIP3     H1       HT       0.417000       1.00800           0
     20901 TIP3     2367     TIP3     H2       HT       0.417000       1.00800           0
     20902 TIP3     2368     TIP3     OH2      OT      -0.834000       15.9994           0
     20903 TIP3     2368     TIP3     H1       HT       0.417000       1.00800           0
     20904 TIP3     2368     TIP3     H2       HT       0.417000       1.00800           0
     20905 TIP3     2369     TIP3     OH2      OT      -0.834000       15.9994           0
     20906 TIP3     2369     TIP3     H1       HT       0.417000       1.00800           0
     20907 TIP3     2369     TIP3     H2       HT       0.417000       1.00800           0
     20908 TIP3     2370     TIP3     OH2      OT      -0.834000       15.9994           0
     20909 TIP3     2370     TIP3     H1       HT       0.417000       1.00800           0
     20910 TIP3     2370     TIP3     H2       HT       0.417000       1.00800           0
     20911 TIP3     2371     TIP3     OH2      OT      -0.834000       15.9994           0
     20912 TIP3     2371     TIP3     H1       HT       0.417000       1.00800           0
     20913 TIP3     2371     TIP3     H2       HT       0.417000       1.00800           0
     20914 TIP3     2372     TIP3     OH2      OT      -0.834000       15.9994           0
     20915 TIP3     2372     TIP3     H1       HT       0.417000       1.00800           0
     20916 TIP3     2372     TIP3     H2       HT       0.417000       1.00800           0
     20917 TIP3     2373     TIP3     OH2      OT      -0.834000       15.9994           0
     20918 TIP3     2373     TIP3     H1       HT       0.417000       1.00800           0
     20919 TIP3     2373     TIP3     H2       HT       0.417000       1.00800           0
     20920 TIP3     2374     TIP3     OH2      OT      -0.834000       15.9994           0
     20921 TIP3     2374     TIP3     H1       HT       0.417000       1.00800           0
     20922 TIP3     2374     TIP3     H2       HT       0.417000       1.00800           0
     20923 TIP3     2375     TIP3     OH2      OT      -0.834000       15.9994           0
     20924 TIP3     2375     TIP3     H1       HT       0.417000       1.00800           0
     20925 TIP3     2375     TIP3     H2       HT       0.417000       1.00800           0
     20926 TIP3     2376     TIP3     OH2      OT      -0.834000       15.9994           0
     20927 TIP3     2376     TIP3     H1       HT       0.417000       1.00800           0
     20928 TIP3     2376     TIP3     H2       HT       0.417000       1.00800           0
     20929 TIP3     2377     TIP3     OH2      OT      -0.834000       15.9994           0
     20930 TIP3     2377     TIP3     H1       HT       0.417000       1.00800           0
     20931 TIP3     2377     TIP3     H2       HT       0.417000       1.00800           0
     20932 TIP3     2378     TIP3     OH2      OT      -0.834000       15.9994           0
     20933 TIP3     2378     TIP3     H1       HT       0.417000       1.00800           0
     20934 TIP3     2378     TIP3     H2       HT       0.417000       1.00800           0
     20935 TIP3     2379     TIP3     OH2      OT      -0.834000       15.9994           0
     20936 TIP3     2379     TIP3     H1       HT       0.417000       1.00800           0
     20937 TIP3     2379     TIP3     H2       HT       0.417000       1.00800           0
     20938 TIP3     2380     TIP3     OH2      OT      -0.834000       15.9994           0
     20939 TIP3     2380     TIP3     H1       HT       0.417000       1.00800           0
     20940 TIP3     2380     TIP3     H2       HT       0.417000       1.00800           0
     20941 TIP3     2381     TIP3     OH2      OT      -0.834000       15.9994           0
     20942 TIP3     2381     TIP3     H1       HT       0.417000       1.00800           0
     20943 TIP3     2381     TIP3     H2       HT       0.417000       1.00800           0
     20944 TIP3     2382     TIP3     OH2      OT      -0.834000       15.9994           0
     20945 TIP3     2382     TIP3     H1       HT       0.417000       1.00800           0
     20946 TIP3     2382     TIP3     H2       HT       0.417000       1.00800           0
     20947 TIP3     2383     TIP3     OH2      OT      -0.834000       15.9994           0
     20948 TIP3     2383     TIP3     H1       HT       0.417000       1.00800           0
     20949 TIP3     2383     TIP3     H2       HT       0.417000       1.00800           0
     20950 TIP3     2384     TIP3     OH2      OT      -0.834000       15.9994           0
     20951 TIP3     2384     TIP3     H1       HT       0.417000       1.00800           0
     20952 TIP3     2384     TIP3     H2       HT       0.417000       1.00800           0
     20953 TIP3     2385     TIP3     OH2      OT      -0.834000       15.9994           0
     20954 TIP3     2385     TIP3     H1       HT       0.417000       1.00800           0
     20955 TIP3     2385     TIP3     H2       HT       0.417000       1.00800           0
     20956 TIP3     2386     TIP3     OH2      OT      -0.834000       15.9994           0
     20957 TIP3     2386     TIP3     H1       HT       0.417000       1.00800           0
     20958 TIP3     2386     TIP3     H2       HT       0.417000       1.00800           0
     20959 TIP3     2387     TIP3     OH2      OT      -0.834000       15.9994           0
     20960 TIP3     2387     TIP3     H1       HT       0.417000       1.00800           0
     20961 TIP3     2387     TIP3     H2       HT       0.417000       1.00800           0
     20962 TIP3     2388     TIP3     OH2      OT      -0.834000       15.9994           0
     20963 TIP3     2388     TIP3     H1       HT       0.417000       1.00800           0
     20964 TIP3     2388     TIP3     H2       HT       0.417000       1.00800           0
     20965 TIP3     2389     TIP3     OH2      OT      -0.834000       15.9994           0
     20966 TIP3     2389     TIP3     H1       HT       0.417000       1.00800           0
     20967 TIP3     2389     TIP3     H2       HT       0.417000       1.00800           0
     20968 TIP3     2390     TIP3     OH2      OT      -0.834000       15.9994           0
     20969 TIP3     2390     TIP3     H1       HT       0.417000       1.00800           0
     20970 TIP3     2390     TIP3     H2       HT       0.417000       1.00800           0
     20971 TIP3     2391     TIP3     OH2      OT      -0.834000       15.9994           0
     20972 TIP3     2391     TIP3     H1       HT       0.417000       1.00800           0
     20973 TIP3     2391     TIP3     H2       HT       0.417000       1.00800           0
     20974 TIP3     2392     TIP3     OH2      OT      -0.834000       15.9994           0
     20975 TIP3     2392     TIP3     H1       HT       0.417000       1.00800           0
     20976 TIP3     2392     TIP3     H2       HT       0.417000       1.00800           0
     20977 TIP3     2393     TIP3     OH2      OT      -0.834000       15.9994           0
     20978 TIP3     2393     TIP3     H1       HT       0.417000       1.00800           0
     20979 TIP3     2393     TIP3     H2       HT       0.417000       1.00800           0
     20980 TIP3     2394     TIP3     OH2      OT      -0.834000       15.9994           0
     20981 TIP3     2394     TIP3     H1       HT       0.417000       1.00800           0
     20982 TIP3     2394     TIP3     H2       HT       0.417000       1.00800           0
     20983 TIP3     2395     TIP3     OH2      OT      -0.834000       15.9994           0
     20984 TIP3     2395     TIP3     H1       HT       0.417000       1.00800           0
     20985 TIP3     2395     TIP3     H2       HT       0.417000       1.00800           0
     20986 TIP3     2396     TIP3     OH2      OT      -0.834000       15.9994           0
     20987 TIP3     2396     TIP3     H1       HT       0.417000       1.00800           0
     20988 TIP3     2396     TIP3     H2       HT       0.417000       1.00800           0
     20989 TIP3     2397     TIP3     OH2      OT      -0.834000       15.9994           0
     20990 TIP3     2397     TIP3     H1       HT       0.417000       1.00800           0
     20991 TIP3     2397     TIP3     H2       HT       0.417000       1.00800           0
     20992 TIP3     2398     TIP3     OH2      OT      -0.834000       15.9994           0
     20993 TIP3     2398     TIP3     H1       HT       0.417000       1.00800           0
     20994 TIP3     2398     TIP3     H2       HT       0.417000       1.00800           0
     20995 TIP3     2399     TIP3     OH2      OT      -0.834000       15.9994           0
     20996 TIP3     2399     TIP3     H1       HT       0.417000       1.00800           0
     20997 TIP3     2399     TIP3     H2       HT       0.417000       1.00800           0
     20998 TIP3     2400     TIP3     OH2      OT      -0.834000       15.9994           0
     20999 TIP3     2400     TIP3     H1       HT       0.417000       1.00800           0
     21000 TIP3     2400     TIP3     H2       HT       0.417000       1.00800           0
     21001 TIP3     2401     TIP3     OH2      OT      -0.834000       15.9994           0
     21002 TIP3     2401     TIP3     H1       HT       0.417000       1.00800           0
     21003 TIP3     2401     TIP3     H2       HT       0.417000       1.00800           0
     21004 TIP3     2402     TIP3     OH2      OT      -0.834000       15.9994           0
     21005 TIP3     2402     TIP3     H1       HT       0.417000       1.00800           0
     21006 TIP3     2402     TIP3     H2       HT       0.417000       1.00800           0
     21007 TIP3     2403     TIP3     OH2      OT      -0.834000       15.9994           0
     21008 TIP3     2403     TIP3     H1       HT       0.417000       1.00800           0
     21009 TIP3     2403     TIP3     H2       HT       0.417000       1.00800           0
     21010 TIP3     2404     TIP3     OH2      OT      -0.834000       15.9994           0
     21011 TIP3     2404     TIP3     H1       HT       0.417000       1.00800           0
     21012 TIP3     2404     TIP3     H2       HT       0.417000       1.00800           0
     21013 TIP3     2405     TIP3     OH2      OT      -0.834000       15.9994           0
     21014 TIP3     2405     TIP3     H1       HT       0.417000       1.00800           0
     21015 TIP3     2405     TIP3     H2       HT       0.417000       1.00800           0
     21016 TIP3     2406     TIP3     OH2      OT      -0.834000       15.9994           0
     21017 TIP3     2406     TIP3     H1       HT       0.417000       1.00800           0
     21018 TIP3     2406     TIP3     H2       HT       0.417000       1.00800           0
     21019 TIP3     2407     TIP3     OH2      OT      -0.834000       15.9994           0
     21020 TIP3     2407     TIP3     H1       HT       0.417000       1.00800           0
     21021 TIP3     2407     TIP3     H2       HT       0.417000       1.00800           0
     21022 TIP3     2408     TIP3     OH2      OT      -0.834000       15.9994           0
     21023 TIP3     2408     TIP3     H1       HT       0.417000       1.00800           0
     21024 TIP3     2408     TIP3     H2       HT       0.417000       1.00800           0
     21025 TIP3     2409     TIP3     OH2      OT      -0.834000       15.9994           0
     21026 TIP3     2409     TIP3     H1       HT       0.417000       1.00800           0
     21027 TIP3     2409     TIP3     H2       HT       0.417000       1.00800           0
     21028 TIP3     2410     TIP3     OH2      OT      -0.834000       15.9994           0
     21029 TIP3     2410     TIP3     H1       HT       0.417000       1.00800           0
     21030 TIP3     2410     TIP3     H2       HT       0.417000       1.00800           0
     21031 TIP3     2411     TIP3     OH2      OT      -0.834000       15.9994           0
     21032 TIP3     2411     TIP3     H1       HT       0.417000       1.00800           0
     21033 TIP3     2411     TIP3     H2       HT       0.417000       1.00800           0
     21034 TIP3     2412     TIP3     OH2      OT      -0.834000       15.9994           0
     21035 TIP3     2412     TIP3     H1       HT       0.417000       1.00800           0
     21036 TIP3     2412     TIP3     H2       HT       0.417000       1.00800           0
     21037 TIP3     2413     TIP3     OH2      OT      -0.834000       15.9994           0
     21038 TIP3     2413     TIP3     H1       HT       0.417000       1.00800           0
     21039 TIP3     2413     TIP3     H2       HT       0.417000       1.00800           0
     21040 TIP3     2414     TIP3     OH2      OT      -0.834000       15.9994           0
     21041 TIP3     2414     TIP3     H1       HT       0.417000       1.00800           0
     21042 TIP3     2414     TIP3     H2       HT       0.417000       1.00800           0
     21043 TIP3     2415     TIP3     OH2      OT      -0.834000       15.9994           0
     21044 TIP3     2415     TIP3     H1       HT       0.417000       1.00800           0
     21045 TIP3     2415     TIP3     H2       HT       0.417000       1.00800           0
     21046 TIP3     2416     TIP3     OH2      OT      -0.834000       15.9994           0
     21047 TIP3     2416     TIP3     H1       HT       0.417000       1.00800           0
     21048 TIP3     2416     TIP3     H2       HT       0.417000       1.00800           0
     21049 TIP3     2417     TIP3     OH2      OT      -0.834000       15.9994           0
     21050 TIP3     2417     TIP3     H1       HT       0.417000       1.00800           0
     21051 TIP3     2417     TIP3     H2       HT       0.417000       1.00800           0
     21052 TIP3     2418     TIP3     OH2      OT      -0.834000       15.9994           0
     21053 TIP3     2418     TIP3     H1       HT       0.417000       1.00800           0
     21054 TIP3     2418     TIP3     H2       HT       0.417000       1.00800           0
     21055 TIP3     2419     TIP3     OH2      OT      -0.834000       15.9994           0
     21056 TIP3     2419     TIP3     H1       HT       0.417000       1.00800           0
     21057 TIP3     2419     TIP3     H2       HT       0.417000       1.00800           0
     21058 TIP3     2420     TIP3     OH2      OT      -0.834000       15.9994           0
     21059 TIP3     2420     TIP3     H1       HT       0.417000       1.00800           0
     21060 TIP3     2420     TIP3     H2       HT       0.417000       1.00800           0
     21061 TIP3     2421     TIP3     OH2      OT      -0.834000       15.9994           0
     21062 TIP3     2421     TIP3     H1       HT       0.417000       1.00800           0
     21063 TIP3     2421     TIP3     H2       HT       0.417000       1.00800           0
     21064 TIP3     2422     TIP3     OH2      OT      -0.834000       15.9994           0
     21065 TIP3     2422     TIP3     H1       HT       0.417000       1.00800           0
     21066 TIP3     2422     TIP3     H2       HT       0.417000       1.00800           0
     21067 TIP3     2423     TIP3     OH2      OT      -0.834000       15.9994           0
     21068 TIP3     2423     TIP3     H1       HT       0.417000       1.00800           0
     21069 TIP3     2423     TIP3     H2       HT       0.417000       1.00800           0
     21070 TIP3     2424     TIP3     OH2      OT      -0.834000       15.9994           0
     21071 TIP3     2424     TIP3     H1       HT       0.417000       1.00800           0
     21072 TIP3     2424     TIP3     H2       HT       0.417000       1.00800           0
     21073 TIP3     2425     TIP3     OH2      OT      -0.834000       15.9994           0
     21074 TIP3     2425     TIP3     H1       HT       0.417000       1.00800           0
     21075 TIP3     2425     TIP3     H2       HT       0.417000       1.00800           0
     21076 TIP3     2426     TIP3     OH2      OT      -0.834000       15.9994           0
     21077 TIP3     2426     TIP3     H1       HT       0.417000       1.00800           0
     21078 TIP3     2426     TIP3     H2       HT       0.417000       1.00800           0
     21079 TIP3     2427     TIP3     OH2      OT      -0.834000       15.9994           0
     21080 TIP3     2427     TIP3     H1       HT       0.417000       1.00800           0
     21081 TIP3     2427     TIP3     H2       HT       0.417000       1.00800           0
     21082 TIP3     2428     TIP3     OH2      OT      -0.834000       15.9994           0
     21083 TIP3     2428     TIP3     H1       HT       0.417000       1.00800           0
     21084 TIP3     2428     TIP3     H2       HT       0.417000       1.00800           0
     21085 TIP3     2429     TIP3     OH2      OT      -0.834000       15.9994           0
     21086 TIP3     2429     TIP3     H1       HT       0.417000       1.00800           0
     21087 TIP3     2429     TIP3     H2       HT       0.417000       1.00800           0
     21088 TIP3     2430     TIP3     OH2      OT      -0.834000       15.9994           0
     21089 TIP3     2430     TIP3     H1       HT       0.417000       1.00800           0
     21090 TIP3     2430     TIP3     H2       HT       0.417000       1.00800           0
     21091 TIP3     2431     TIP3     OH2      OT      -0.834000       15.9994           0
     21092 TIP3     2431     TIP3     H1       HT       0.417000       1.00800           0
     21093 TIP3     2431     TIP3     H2       HT       0.417000       1.00800           0
     21094 TIP3     2432     TIP3     OH2      OT      -0.834000       15.9994           0
     21095 TIP3     2432     TIP3     H1       HT       0.417000       1.00800           0
     21096 TIP3     2432     TIP3     H2       HT       0.417000       1.00800           0
     21097 TIP3     2433     TIP3     OH2      OT      -0.834000       15.9994           0
     21098 TIP3     2433     TIP3     H1       HT       0.417000       1.00800           0
     21099 TIP3     2433     TIP3     H2       HT       0.417000       1.00800           0
     21100 TIP3     2434     TIP3     OH2      OT      -0.834000       15.9994           0
     21101 TIP3     2434     TIP3     H1       HT       0.417000       1.00800           0
     21102 TIP3     2434     TIP3     H2       HT       0.417000       1.00800           0
     21103 TIP3     2435     TIP3     OH2      OT      -0.834000       15.9994           0
     21104 TIP3     2435     TIP3     H1       HT       0.417000       1.00800           0
     21105 TIP3     2435     TIP3     H2       HT       0.417000       1.00800           0
     21106 TIP3     2436     TIP3     OH2      OT      -0.834000       15.9994           0
     21107 TIP3     2436     TIP3     H1       HT       0.417000       1.00800           0
     21108 TIP3     2436     TIP3     H2       HT       0.417000       1.00800           0
     21109 TIP3     2437     TIP3     OH2      OT      -0.834000       15.9994           0
     21110 TIP3     2437     TIP3     H1       HT       0.417000       1.00800           0
     21111 TIP3     2437     TIP3     H2       HT       0.417000       1.00800           0
     21112 TIP3     2438     TIP3     OH2      OT      -0.834000       15.9994           0
     21113 TIP3     2438     TIP3     H1       HT       0.417000       1.00800           0
     21114 TIP3     2438     TIP3     H2       HT       0.417000       1.00800           0
     21115 TIP3     2439     TIP3     OH2      OT      -0.834000       15.9994           0
     21116 TIP3     2439     TIP3     H1       HT       0.417000       1.00800           0
     21117 TIP3     2439     TIP3     H2       HT       0.417000       1.00800           0
     21118 TIP3     2440     TIP3     OH2      OT      -0.834000       15.9994           0
     21119 TIP3     2440     TIP3     H1       HT       0.417000       1.00800           0
     21120 TIP3     2440     TIP3     H2       HT       0.417000       1.00800           0
     21121 TIP3     2441     TIP3     OH2      OT      -0.834000       15.9994           0
     21122 TIP3     2441     TIP3     H1       HT       0.417000       1.00800           0
     21123 TIP3     2441     TIP3     H2       HT       0.417000       1.00800           0
     21124 TIP3     2442     TIP3     OH2      OT      -0.834000       15.9994           0
     21125 TIP3     2442     TIP3     H1       HT       0.417000       1.00800           0
     21126 TIP3     2442     TIP3     H2       HT       0.417000       1.00800           0
     21127 TIP3     2443     TIP3     OH2      OT      -0.834000       15.9994           0
     21128 TIP3     2443     TIP3     H1       HT       0.417000       1.00800           0
     21129 TIP3     2443     TIP3     H2       HT       0.417000       1.00800           0
     21130 TIP3     2444     TIP3     OH2      OT      -0.834000       15.9994           0
     21131 TIP3     2444     TIP3     H1       HT       0.417000       1.00800           0
     21132 TIP3     2444     TIP3     H2       HT       0.417000       1.00800           0
     21133 TIP3     2445     TIP3     OH2      OT      -0.834000       15.9994           0
     21134 TIP3     2445     TIP3     H1       HT       0.417000       1.00800           0
     21135 TIP3     2445     TIP3     H2       HT       0.417000       1.00800           0
     21136 TIP3     2446     TIP3     OH2      OT      -0.834000       15.9994           0
     21137 TIP3     2446     TIP3     H1       HT       0.417000       1.00800           0
     21138 TIP3     2446     TIP3     H2       HT       0.417000       1.00800           0
     21139 TIP3     2447     TIP3     OH2      OT      -0.834000       15.9994           0
     21140 TIP3     2447     TIP3     H1       HT       0.417000       1.00800           0
     21141 TIP3     2447     TIP3     H2       HT       0.417000       1.00800           0
     21142 TIP3     2448     TIP3     OH2      OT      -0.834000       15.9994           0
     21143 TIP3     2448     TIP3     H1       HT       0.417000       1.00800           0
     21144 TIP3     2448     TIP3     H2       HT       0.417000       1.00800           0
     21145 TIP3     2449     TIP3     OH2      OT      -0.834000       15.9994           0
     21146 TIP3     2449     TIP3     H1       HT       0.417000       1.00800           0
     21147 TIP3     2449     TIP3     H2       HT       0.417000       1.00800           0
     21148 TIP3     2450     TIP3     OH2      OT      -0.834000       15.9994           0
     21149 TIP3     2450     TIP3     H1       HT       0.417000       1.00800           0
     21150 TIP3     2450     TIP3     H2       HT       0.417000       1.00800           0
     21151 TIP3     2451     TIP3     OH2      OT      -0.834000       15.9994           0
     21152 TIP3     2451     TIP3     H1       HT       0.417000       1.00800           0
     21153 TIP3     2451     TIP3     H2       HT       0.417000       1.00800           0
     21154 TIP3     2452     TIP3     OH2      OT      -0.834000       15.9994           0
     21155 TIP3     2452     TIP3     H1       HT       0.417000       1.00800           0
     21156 TIP3     2452     TIP3     H2       HT       0.417000       1.00800           0
     21157 TIP3     2453     TIP3     OH2      OT      -0.834000       15.9994           0
     21158 TIP3     2453     TIP3     H1       HT       0.417000       1.00800           0
     21159 TIP3     2453     TIP3     H2       HT       0.417000       1.00800           0
     21160 TIP3     2454     TIP3     OH2      OT      -0.834000       15.9994           0
     21161 TIP3     2454     TIP3     H1       HT       0.417000       1.00800           0
     21162 TIP3     2454     TIP3     H2       HT       0.417000       1.00800           0
     21163 TIP3     2455     TIP3     OH2      OT      -0.834000       15.9994           0
     21164 TIP3     2455     TIP3     H1       HT       0.417000       1.00800           0
     21165 TIP3     2455     TIP3     H2       HT       0.417000       1.00800           0
     21166 TIP3     2456     TIP3     OH2      OT      -0.834000       15.9994           0
     21167 TIP3     2456     TIP3     H1       HT       0.417000       1.00800           0
     21168 TIP3     2456     TIP3     H2       HT       0.417000       1.00800           0
     21169 TIP3     2457     TIP3     OH2      OT      -0.834000       15.9994           0
     21170 TIP3     2457     TIP3     H1       HT       0.417000       1.00800           0
     21171 TIP3     2457     TIP3     H2       HT       0.417000       1.00800           0
     21172 TIP3     2458     TIP3     OH2      OT      -0.834000       15.9994           0
     21173 TIP3     2458     TIP3     H1       HT       0.417000       1.00800           0
     21174 TIP3     2458     TIP3     H2       HT       0.417000       1.00800           0
     21175 TIP3     2459     TIP3     OH2      OT      -0.834000       15.9994           0
     21176 TIP3     2459     TIP3     H1       HT       0.417000       1.00800           0
     21177 TIP3     2459     TIP3     H2       HT       0.417000       1.00800           0
     21178 TIP3     2460     TIP3     OH2      OT      -0.834000       15.9994           0
     21179 TIP3     2460     TIP3     H1       HT       0.417000       1.00800           0
     21180 TIP3     2460     TIP3     H2       HT       0.417000       1.00800           0
     21181 TIP3     2461     TIP3     OH2      OT      -0.834000       15.9994           0
     21182 TIP3     2461     TIP3     H1       HT       0.417000       1.00800           0
     21183 TIP3     2461     TIP3     H2       HT       0.417000       1.00800           0
     21184 TIP3     2462     TIP3     OH2      OT      -0.834000       15.9994           0
     21185 TIP3     2462     TIP3     H1       HT       0.417000       1.00800           0
     21186 TIP3     2462     TIP3     H2       HT       0.417000       1.00800           0
     21187 TIP3     2463     TIP3     OH2      OT      -0.834000       15.9994           0
     21188 TIP3     2463     TIP3     H1       HT       0.417000       1.00800           0
     21189 TIP3     2463     TIP3     H2       HT       0.417000       1.00800           0
     21190 TIP3     2464     TIP3     OH2      OT      -0.834000       15.9994           0
     21191 TIP3     2464     TIP3     H1       HT       0.417000       1.00800           0
     21192 TIP3     2464     TIP3     H2       HT       0.417000       1.00800           0
     21193 TIP3     2465     TIP3     OH2      OT      -0.834000       15.9994           0
     21194 TIP3     2465     TIP3     H1       HT       0.417000       1.00800           0
     21195 TIP3     2465     TIP3     H2       HT       0.417000       1.00800           0
     21196 TIP3     2466     TIP3     OH2      OT      -0.834000       15.9994           0
     21197 TIP3     2466     TIP3     H1       HT       0.417000       1.00800           0
     21198 TIP3     2466     TIP3     H2       HT       0.417000       1.00800           0
     21199 TIP3     2467     TIP3     OH2      OT      -0.834000       15.9994           0
     21200 TIP3     2467     TIP3     H1       HT       0.417000       1.00800           0
     21201 TIP3     2467     TIP3     H2       HT       0.417000       1.00800           0
     21202 TIP3     2468     TIP3     OH2      OT      -0.834000       15.9994           0
     21203 TIP3     2468     TIP3     H1       HT       0.417000       1.00800           0
     21204 TIP3     2468     TIP3     H2       HT       0.417000       1.00800           0
     21205 TIP3     2469     TIP3     OH2      OT      -0.834000       15.9994           0
     21206 TIP3     2469     TIP3     H1       HT       0.417000       1.00800           0
     21207 TIP3     2469     TIP3     H2       HT       0.417000       1.00800           0
     21208 TIP3     2470     TIP3     OH2      OT      -0.834000       15.9994           0
     21209 TIP3     2470     TIP3     H1       HT       0.417000       1.00800           0
     21210 TIP3     2470     TIP3     H2       HT       0.417000       1.00800           0
     21211 TIP3     2471     TIP3     OH2      OT      -0.834000       15.9994           0
     21212 TIP3     2471     TIP3     H1       HT       0.417000       1.00800           0
     21213 TIP3     2471     TIP3     H2       HT       0.417000       1.00800           0
     21214 TIP3     2472     TIP3     OH2      OT      -0.834000       15.9994           0
     21215 TIP3     2472     TIP3     H1       HT       0.417000       1.00800           0
     21216 TIP3     2472     TIP3     H2       HT       0.417000       1.00800           0
     21217 TIP3     2473     TIP3     OH2      OT      -0.834000       15.9994           0
     21218 TIP3     2473     TIP3     H1       HT       0.417000       1.00800           0
     21219 TIP3     2473     TIP3     H2       HT       0.417000       1.00800           0
     21220 TIP3     2474     TIP3     OH2      OT      -0.834000       15.9994           0
     21221 TIP3     2474     TIP3     H1       HT       0.417000       1.00800           0
     21222 TIP3     2474     TIP3     H2       HT       0.417000       1.00800           0
     21223 TIP3     2475     TIP3     OH2      OT      -0.834000       15.9994           0
     21224 TIP3     2475     TIP3     H1       HT       0.417000       1.00800           0
     21225 TIP3     2475     TIP3     H2       HT       0.417000       1.00800           0
     21226 TIP3     2476     TIP3     OH2      OT      -0.834000       15.9994           0
     21227 TIP3     2476     TIP3     H1       HT       0.417000       1.00800           0
     21228 TIP3     2476     TIP3     H2       HT       0.417000       1.00800           0
     21229 TIP3     2477     TIP3     OH2      OT      -0.834000       15.9994           0
     21230 TIP3     2477     TIP3     H1       HT       0.417000       1.00800           0
     21231 TIP3     2477     TIP3     H2       HT       0.417000       1.00800           0
     21232 TIP3     2478     TIP3     OH2      OT      -0.834000       15.9994           0
     21233 TIP3     2478     TIP3     H1       HT       0.417000       1.00800           0
     21234 TIP3     2478     TIP3     H2       HT       0.417000       1.00800           0
     21235 TIP3     2479     TIP3     OH2      OT      -0.834000       15.9994           0
     21236 TIP3     2479     TIP3     H1       HT       0.417000       1.00800           0
     21237 TIP3     2479     TIP3     H2       HT       0.417000       1.00800           0
     21238 TIP3     2480     TIP3     OH2      OT      -0.834000       15.9994           0
     21239 TIP3     2480     TIP3     H1       HT       0.417000       1.00800           0
     21240 TIP3     2480     TIP3     H2       HT       0.417000       1.00800           0
     21241 TIP3     2481     TIP3     OH2      OT      -0.834000       15.9994           0
     21242 TIP3     2481     TIP3     H1       HT       0.417000       1.00800           0
     21243 TIP3     2481     TIP3     H2       HT       0.417000       1.00800           0
     21244 TIP3     2482     TIP3     OH2      OT      -0.834000       15.9994           0
     21245 TIP3     2482     TIP3     H1       HT       0.417000       1.00800           0
     21246 TIP3     2482     TIP3     H2       HT       0.417000       1.00800           0
     21247 TIP3     2483     TIP3     OH2      OT      -0.834000       15.9994           0
     21248 TIP3     2483     TIP3     H1       HT       0.417000       1.00800           0
     21249 TIP3     2483     TIP3     H2       HT       0.417000       1.00800           0
     21250 TIP3     2484     TIP3     OH2      OT      -0.834000       15.9994           0
     21251 TIP3     2484     TIP3     H1       HT       0.417000       1.00800           0
     21252 TIP3     2484     TIP3     H2       HT       0.417000       1.00800           0
     21253 TIP3     2485     TIP3     OH2      OT      -0.834000       15.9994           0
     21254 TIP3     2485     TIP3     H1       HT       0.417000       1.00800           0
     21255 TIP3     2485     TIP3     H2       HT       0.417000       1.00800           0
     21256 TIP3     2486     TIP3     OH2      OT      -0.834000       15.9994           0
     21257 TIP3     2486     TIP3     H1       HT       0.417000       1.00800           0
     21258 TIP3     2486     TIP3     H2       HT       0.417000       1.00800           0
     21259 TIP3     2487     TIP3     OH2      OT      -0.834000       15.9994           0
     21260 TIP3     2487     TIP3     H1       HT       0.417000       1.00800           0
     21261 TIP3     2487     TIP3     H2       HT       0.417000       1.00800           0
     21262 TIP3     2488     TIP3     OH2      OT      -0.834000       15.9994           0
     21263 TIP3     2488     TIP3     H1       HT       0.417000       1.00800           0
     21264 TIP3     2488     TIP3     H2       HT       0.417000       1.00800           0
     21265 TIP3     2489     TIP3     OH2      OT      -0.834000       15.9994           0
     21266 TIP3     2489     TIP3     H1       HT       0.417000       1.00800           0
     21267 TIP3     2489     TIP3     H2       HT       0.417000       1.00800           0
     21268 TIP3     2490     TIP3     OH2      OT      -0.834000       15.9994           0
     21269 TIP3     2490     TIP3     H1       HT       0.417000       1.00800           0
     21270 TIP3     2490     TIP3     H2       HT       0.417000       1.00800           0
     21271 TIP3     2491     TIP3     OH2      OT      -0.834000       15.9994           0
     21272 TIP3     2491     TIP3     H1       HT       0.417000       1.00800           0
     21273 TIP3     2491     TIP3     H2       HT       0.417000       1.00800           0
     21274 TIP3     2492     TIP3     OH2      OT      -0.834000       15.9994           0
     21275 TIP3     2492     TIP3     H1       HT       0.417000       1.00800           0
     21276 TIP3     2492     TIP3     H2       HT       0.417000       1.00800           0
     21277 TIP3     2493     TIP3     OH2      OT      -0.834000       15.9994           0
     21278 TIP3     2493     TIP3     H1       HT       0.417000       1.00800           0
     21279 TIP3     2493     TIP3     H2       HT       0.417000       1.00800           0
     21280 TIP3     2494     TIP3     OH2      OT      -0.834000       15.9994           0
     21281 TIP3     2494     TIP3     H1       HT       0.417000       1.00800           0
     21282 TIP3     2494     TIP3     H2       HT       0.417000       1.00800           0
     21283 TIP3     2495     TIP3     OH2      OT      -0.834000       15.9994           0
     21284 TIP3     2495     TIP3     H1       HT       0.417000       1.00800           0
     21285 TIP3     2495     TIP3     H2       HT       0.417000       1.00800           0
     21286 TIP3     2496     TIP3     OH2      OT      -0.834000       15.9994           0
     21287 TIP3     2496     TIP3     H1       HT       0.417000       1.00800           0
     21288 TIP3     2496     TIP3     H2       HT       0.417000       1.00800           0
     21289 TIP3     2497     TIP3     OH2      OT      -0.834000       15.9994           0
     21290 TIP3     2497     TIP3     H1       HT       0.417000       1.00800           0
     21291 TIP3     2497     TIP3     H2       HT       0.417000       1.00800           0
     21292 TIP3     2498     TIP3     OH2      OT      -0.834000       15.9994           0
     21293 TIP3     2498     TIP3     H1       HT       0.417000       1.00800           0
     21294 TIP3     2498     TIP3     H2       HT       0.417000       1.00800           0
     21295 TIP3     2499     TIP3     OH2      OT      -0.834000       15.9994           0
     21296 TIP3     2499     TIP3     H1       HT       0.417000       1.00800           0
     21297 TIP3     2499     TIP3     H2       HT       0.417000       1.00800           0
     21298 TIP3     2500     TIP3     OH2      OT      -0.834000       15.9994           0
     21299 TIP3     2500     TIP3     H1       HT       0.417000       1.00800           0
     21300 TIP3     2500     TIP3     H2       HT       0.417000       1.00800           0
     21301 TIP3     2501     TIP3     OH2      OT      -0.834000       15.9994           0
     21302 TIP3     2501     TIP3     H1       HT       0.417000       1.00800           0
     21303 TIP3     2501     TIP3     H2       HT       0.417000       1.00800           0
     21304 TIP3     2502     TIP3     OH2      OT      -0.834000       15.9994           0
     21305 TIP3     2502     TIP3     H1       HT       0.417000       1.00800           0
     21306 TIP3     2502     TIP3     H2       HT       0.417000       1.00800           0
     21307 TIP3     2503     TIP3     OH2      OT      -0.834000       15.9994           0
     21308 TIP3     2503     TIP3     H1       HT       0.417000       1.00800           0
     21309 TIP3     2503     TIP3     H2       HT       0.417000       1.00800           0
     21310 TIP3     2504     TIP3     OH2      OT      -0.834000       15.9994           0
     21311 TIP3     2504     TIP3     H1       HT       0.417000       1.00800           0
     21312 TIP3     2504     TIP3     H2       HT       0.417000       1.00800           0
     21313 TIP3     2505     TIP3     OH2      OT      -0.834000       15.9994           0
     21314 TIP3     2505     TIP3     H1       HT       0.417000       1.00800           0
     21315 TIP3     2505     TIP3     H2       HT       0.417000       1.00800           0
     21316 TIP3     2506     TIP3     OH2      OT      -0.834000       15.9994           0
     21317 TIP3     2506     TIP3     H1       HT       0.417000       1.00800           0
     21318 TIP3     2506     TIP3     H2       HT       0.417000       1.00800           0
     21319 TIP3     2507     TIP3     OH2      OT      -0.834000       15.9994           0
     21320 TIP3     2507     TIP3     H1       HT       0.417000       1.00800           0
     21321 TIP3     2507     TIP3     H2       HT       0.417000       1.00800           0
     21322 TIP3     2508     TIP3     OH2      OT      -0.834000       15.9994           0
     21323 TIP3     2508     TIP3     H1       HT       0.417000       1.00800           0
     21324 TIP3     2508     TIP3     H2       HT       0.417000       1.00800           0
     21325 TIP3     2509     TIP3     OH2      OT      -0.834000       15.9994           0
     21326 TIP3     2509     TIP3     H1       HT       0.417000       1.00800           0
     21327 TIP3     2509     TIP3     H2       HT       0.417000       1.00800           0
     21328 TIP3     2510     TIP3     OH2      OT      -0.834000       15.9994           0
     21329 TIP3     2510     TIP3     H1       HT       0.417000       1.00800           0
     21330 TIP3     2510     TIP3     H2       HT       0.417000       1.00800           0
     21331 TIP3     2511     TIP3     OH2      OT      -0.834000       15.9994           0
     21332 TIP3     2511     TIP3     H1       HT       0.417000       1.00800           0
     21333 TIP3     2511     TIP3     H2       HT       0.417000       1.00800           0
     21334 TIP3     2512     TIP3     OH2      OT      -0.834000       15.9994           0
     21335 TIP3     2512     TIP3     H1       HT       0.417000       1.00800           0
     21336 TIP3     2512     TIP3     H2       HT       0.417000       1.00800           0
     21337 TIP3     2513     TIP3     OH2      OT      -0.834000       15.9994           0
     21338 TIP3     2513     TIP3     H1       HT       0.417000       1.00800           0
     21339 TIP3     2513     TIP3     H2       HT       0.417000       1.00800           0
     21340 TIP3     2514     TIP3     OH2      OT      -0.834000       15.9994           0
     21341 TIP3     2514     TIP3     H1       HT       0.417000       1.00800           0
     21342 TIP3     2514     TIP3     H2       HT       0.417000       1.00800           0
     21343 TIP3     2515     TIP3     OH2      OT      -0.834000       15.9994           0
     21344 TIP3     2515     TIP3     H1       HT       0.417000       1.00800           0
     21345 TIP3     2515     TIP3     H2       HT       0.417000       1.00800           0
     21346 TIP3     2516     TIP3     OH2      OT      -0.834000       15.9994           0
     21347 TIP3     2516     TIP3     H1       HT       0.417000       1.00800           0
     21348 TIP3     2516     TIP3     H2       HT       0.417000       1.00800           0
     21349 TIP3     2517     TIP3     OH2      OT      -0.834000       15.9994           0
     21350 TIP3     2517     TIP3     H1       HT       0.417000       1.00800           0
     21351 TIP3     2517     TIP3     H2       HT       0.417000       1.00800           0
     21352 TIP3     2518     TIP3     OH2      OT      -0.834000       15.9994           0
     21353 TIP3     2518     TIP3     H1       HT       0.417000       1.00800           0
     21354 TIP3     2518     TIP3     H2       HT       0.417000       1.00800           0
     21355 TIP3     2519     TIP3     OH2      OT      -0.834000       15.9994           0
     21356 TIP3     2519     TIP3     H1       HT       0.417000       1.00800           0
     21357 TIP3     2519     TIP3     H2       HT       0.417000       1.00800           0
     21358 TIP3     2520     TIP3     OH2      OT      -0.834000       15.9994           0
     21359 TIP3     2520     TIP3     H1       HT       0.417000       1.00800           0
     21360 TIP3     2520     TIP3     H2       HT       0.417000       1.00800           0
     21361 TIP3     2521     TIP3     OH2      OT      -0.834000       15.9994           0
     21362 TIP3     2521     TIP3     H1       HT       0.417000       1.00800           0
     21363 TIP3     2521     TIP3     H2       HT       0.417000       1.00800           0
     21364 TIP3     2522     TIP3     OH2      OT      -0.834000       15.9994           0
     21365 TIP3     2522     TIP3     H1       HT       0.417000       1.00800           0
     21366 TIP3     2522     TIP3     H2       HT       0.417000       1.00800           0
     21367 TIP3     2523     TIP3     OH2      OT      -0.834000       15.9994           0
     21368 TIP3     2523     TIP3     H1       HT       0.417000       1.00800           0
     21369 TIP3     2523     TIP3     H2       HT       0.417000       1.00800           0
     21370 TIP3     2524     TIP3     OH2      OT      -0.834000       15.9994           0
     21371 TIP3     2524     TIP3     H1       HT       0.417000       1.00800           0
     21372 TIP3     2524     TIP3     H2       HT       0.417000       1.00800           0
     21373 TIP3     2525     TIP3     OH2      OT      -0.834000       15.9994           0
     21374 TIP3     2525     TIP3     H1       HT       0.417000       1.00800           0
     21375 TIP3     2525     TIP3     H2       HT       0.417000       1.00800           0
     21376 TIP3     2526     TIP3     OH2      OT      -0.834000       15.9994           0
     21377 TIP3     2526     TIP3     H1       HT       0.417000       1.00800           0
     21378 TIP3     2526     TIP3     H2       HT       0.417000       1.00800           0
     21379 TIP3     2527     TIP3     OH2      OT      -0.834000       15.9994           0
     21380 TIP3     2527     TIP3     H1       HT       0.417000       1.00800           0
     21381 TIP3     2527     TIP3     H2       HT       0.417000       1.00800           0
     21382 TIP3     2528     TIP3     OH2      OT      -0.834000       15.9994           0
     21383 TIP3     2528     TIP3     H1       HT       0.417000       1.00800           0
     21384 TIP3     2528     TIP3     H2       HT       0.417000       1.00800           0
     21385 TIP3     2529     TIP3     OH2      OT      -0.834000       15.9994           0
     21386 TIP3     2529     TIP3     H1       HT       0.417000       1.00800           0
     21387 TIP3     2529     TIP3     H2       HT       0.417000       1.00800           0
     21388 TIP3     2530     TIP3     OH2      OT      -0.834000       15.9994           0
     21389 TIP3     2530     TIP3     H1       HT       0.417000       1.00800           0
     21390 TIP3     2530     TIP3     H2       HT       0.417000       1.00800           0
     21391 TIP3     2531     TIP3     OH2      OT      -0.834000       15.9994           0
     21392 TIP3     2531     TIP3     H1       HT       0.417000       1.00800           0
     21393 TIP3     2531     TIP3     H2       HT       0.417000       1.00800           0
     21394 TIP3     2532     TIP3     OH2      OT      -0.834000       15.9994           0
     21395 TIP3     2532     TIP3     H1       HT       0.417000       1.00800           0
     21396 TIP3     2532     TIP3     H2       HT       0.417000       1.00800           0
     21397 TIP3     2533     TIP3     OH2      OT      -0.834000       15.9994           0
     21398 TIP3     2533     TIP3     H1       HT       0.417000       1.00800           0
     21399 TIP3     2533     TIP3     H2       HT       0.417000       1.00800           0
     21400 TIP3     2534     TIP3     OH2      OT      -0.834000       15.9994           0
     21401 TIP3     2534     TIP3     H1       HT       0.417000       1.00800           0
     21402 TIP3     2534     TIP3     H2       HT       0.417000       1.00800           0
     21403 TIP3     2535     TIP3     OH2      OT      -0.834000       15.9994           0
     21404 TIP3     2535     TIP3     H1       HT       0.417000       1.00800           0
     21405 TIP3     2535     TIP3     H2       HT       0.417000       1.00800           0
     21406 TIP3     2536     TIP3     OH2      OT      -0.834000       15.9994           0
     21407 TIP3     2536     TIP3     H1       HT       0.417000       1.00800           0
     21408 TIP3     2536     TIP3     H2       HT       0.417000       1.00800           0
     21409 TIP3     2537     TIP3     OH2      OT      -0.834000       15.9994           0
     21410 TIP3     2537     TIP3     H1       HT       0.417000       1.00800           0
     21411 TIP3     2537     TIP3     H2       HT       0.417000       1.00800           0
     21412 TIP3     2538     TIP3     OH2      OT      -0.834000       15.9994           0
     21413 TIP3     2538     TIP3     H1       HT       0.417000       1.00800           0
     21414 TIP3     2538     TIP3     H2       HT       0.417000       1.00800           0
     21415 TIP3     2539     TIP3     OH2      OT      -0.834000       15.9994           0
     21416 TIP3     2539     TIP3     H1       HT       0.417000       1.00800           0
     21417 TIP3     2539     TIP3     H2       HT       0.417000       1.00800           0
     21418 TIP3     2540     TIP3     OH2      OT      -0.834000       15.9994           0
     21419 TIP3     2540     TIP3     H1       HT       0.417000       1.00800           0
     21420 TIP3     2540     TIP3     H2       HT       0.417000       1.00800           0
     21421 TIP3     2541     TIP3     OH2      OT      -0.834000       15.9994           0
     21422 TIP3     2541     TIP3     H1       HT       0.417000       1.00800           0
     21423 TIP3     2541     TIP3     H2       HT       0.417000       1.00800           0
     21424 TIP3     2542     TIP3     OH2      OT      -0.834000       15.9994           0
     21425 TIP3     2542     TIP3     H1       HT       0.417000       1.00800           0
     21426 TIP3     2542     TIP3     H2       HT       0.417000       1.00800           0
     21427 TIP3     2543     TIP3     OH2      OT      -0.834000       15.9994           0
     21428 TIP3     2543     TIP3     H1       HT       0.417000       1.00800           0
     21429 TIP3     2543     TIP3     H2       HT       0.417000       1.00800           0
     21430 TIP3     2544     TIP3     OH2      OT      -0.834000       15.9994           0
     21431 TIP3     2544     TIP3     H1       HT       0.417000       1.00800           0
     21432 TIP3     2544     TIP3     H2       HT       0.417000       1.00800           0
     21433 TIP3     2545     TIP3     OH2      OT      -0.834000       15.9994           0
     21434 TIP3     2545     TIP3     H1       HT       0.417000       1.00800           0
     21435 TIP3     2545     TIP3     H2       HT       0.417000       1.00800           0
     21436 TIP3     2546     TIP3     OH2      OT      -0.834000       15.9994           0
     21437 TIP3     2546     TIP3     H1       HT       0.417000       1.00800           0
     21438 TIP3     2546     TIP3     H2       HT       0.417000       1.00800           0
     21439 TIP3     2547     TIP3     OH2      OT      -0.834000       15.9994           0
     21440 TIP3     2547     TIP3     H1       HT       0.417000       1.00800           0
     21441 TIP3     2547     TIP3     H2       HT       0.417000       1.00800           0
     21442 TIP3     2548     TIP3     OH2      OT      -0.834000       15.9994           0
     21443 TIP3     2548     TIP3     H1       HT       0.417000       1.00800           0
     21444 TIP3     2548     TIP3     H2       HT       0.417000       1.00800           0
     21445 TIP3     2549     TIP3     OH2      OT      -0.834000       15.9994           0
     21446 TIP3     2549     TIP3     H1       HT       0.417000       1.00800           0
     21447 TIP3     2549     TIP3     H2       HT       0.417000       1.00800           0
     21448 TIP3     2550     TIP3     OH2      OT      -0.834000       15.9994           0
     21449 TIP3     2550     TIP3     H1       HT       0.417000       1.00800           0
     21450 TIP3     2550     TIP3     H2       HT       0.417000       1.00800           0
     21451 TIP3     2551     TIP3     OH2      OT      -0.834000       15.9994           0
     21452 TIP3     2551     TIP3     H1       HT       0.417000       1.00800           0
     21453 TIP3     2551     TIP3     H2       HT       0.417000       1.00800           0
     21454 TIP3     2552     TIP3     OH2      OT      -0.834000       15.9994           0
     21455 TIP3     2552     TIP3     H1       HT       0.417000       1.00800           0
     21456 TIP3     2552     TIP3     H2       HT       0.417000       1.00800           0
     21457 TIP3     2553     TIP3     OH2      OT      -0.834000       15.9994           0
     21458 TIP3     2553     TIP3     H1       HT       0.417000       1.00800           0
     21459 TIP3     2553     TIP3     H2       HT       0.417000       1.00800           0
     21460 TIP3     2554     TIP3     OH2      OT      -0.834000       15.9994           0
     21461 TIP3     2554     TIP3     H1       HT       0.417000       1.00800           0
     21462 TIP3     2554     TIP3     H2       HT       0.417000       1.00800           0
     21463 TIP3     2555     TIP3     OH2      OT      -0.834000       15.9994           0
     21464 TIP3     2555     TIP3     H1       HT       0.417000       1.00800           0
     21465 TIP3     2555     TIP3     H2       HT       0.417000       1.00800           0
     21466 TIP3     2556     TIP3     OH2      OT      -0.834000       15.9994           0
     21467 TIP3     2556     TIP3     H1       HT       0.417000       1.00800           0
     21468 TIP3     2556     TIP3     H2       HT       0.417000       1.00800           0
     21469 TIP3     2557     TIP3     OH2      OT      -0.834000       15.9994           0
     21470 TIP3     2557     TIP3     H1       HT       0.417000       1.00800           0
     21471 TIP3     2557     TIP3     H2       HT       0.417000       1.00800           0
     21472 TIP3     2558     TIP3     OH2      OT      -0.834000       15.9994           0
     21473 TIP3     2558     TIP3     H1       HT       0.417000       1.00800           0
     21474 TIP3     2558     TIP3     H2       HT       0.417000       1.00800           0
     21475 TIP3     2559     TIP3     OH2      OT      -0.834000       15.9994           0
     21476 TIP3     2559     TIP3     H1       HT       0.417000       1.00800           0
     21477 TIP3     2559     TIP3     H2       HT       0.417000       1.00800           0
     21478 TIP3     2560     TIP3     OH2      OT      -0.834000       15.9994           0
     21479 TIP3     2560     TIP3     H1       HT       0.417000       1.00800           0
     21480 TIP3     2560     TIP3     H2       HT       0.417000       1.00800           0
     21481 TIP3     2561     TIP3     OH2      OT      -0.834000       15.9994           0
     21482 TIP3     2561     TIP3     H1       HT       0.417000       1.00800           0
     21483 TIP3     2561     TIP3     H2       HT       0.417000       1.00800           0
     21484 TIP3     2562     TIP3     OH2      OT      -0.834000       15.9994           0
     21485 TIP3     2562     TIP3     H1       HT       0.417000       1.00800           0
     21486 TIP3     2562     TIP3     H2       HT       0.417000       1.00800           0
     21487 TIP3     2563     TIP3     OH2      OT      -0.834000       15.9994           0
     21488 TIP3     2563     TIP3     H1       HT       0.417000       1.00800           0
     21489 TIP3     2563     TIP3     H2       HT       0.417000       1.00800           0
     21490 TIP3     2564     TIP3     OH2      OT      -0.834000       15.9994           0
     21491 TIP3     2564     TIP3     H1       HT       0.417000       1.00800           0
     21492 TIP3     2564     TIP3     H2       HT       0.417000       1.00800           0
     21493 TIP3     2565     TIP3     OH2      OT      -0.834000       15.9994           0
     21494 TIP3     2565     TIP3     H1       HT       0.417000       1.00800           0
     21495 TIP3     2565     TIP3     H2       HT       0.417000       1.00800           0
     21496 TIP3     2566     TIP3     OH2      OT      -0.834000       15.9994           0
     21497 TIP3     2566     TIP3     H1       HT       0.417000       1.00800           0
     21498 TIP3     2566     TIP3     H2       HT       0.417000       1.00800           0
     21499 TIP3     2567     TIP3     OH2      OT      -0.834000       15.9994           0
     21500 TIP3     2567     TIP3     H1       HT       0.417000       1.00800           0
     21501 TIP3     2567     TIP3     H2       HT       0.417000       1.00800           0
     21502 TIP3     2568     TIP3     OH2      OT      -0.834000       15.9994           0
     21503 TIP3     2568     TIP3     H1       HT       0.417000       1.00800           0
     21504 TIP3     2568     TIP3     H2       HT       0.417000       1.00800           0
     21505 TIP3     2569     TIP3     OH2      OT      -0.834000       15.9994           0
     21506 TIP3     2569     TIP3     H1       HT       0.417000       1.00800           0
     21507 TIP3     2569     TIP3     H2       HT       0.417000       1.00800           0
     21508 TIP3     2570     TIP3     OH2      OT      -0.834000       15.9994           0
     21509 TIP3     2570     TIP3     H1       HT       0.417000       1.00800           0
     21510 TIP3     2570     TIP3     H2       HT       0.417000       1.00800           0
     21511 TIP3     2571     TIP3     OH2      OT      -0.834000       15.9994           0
     21512 TIP3     2571     TIP3     H1       HT       0.417000       1.00800           0
     21513 TIP3     2571     TIP3     H2       HT       0.417000       1.00800           0
     21514 TIP3     2572     TIP3     OH2      OT      -0.834000       15.9994           0
     21515 TIP3     2572     TIP3     H1       HT       0.417000       1.00800           0
     21516 TIP3     2572     TIP3     H2       HT       0.417000       1.00800           0
     21517 TIP3     2573     TIP3     OH2      OT      -0.834000       15.9994           0
     21518 TIP3     2573     TIP3     H1       HT       0.417000       1.00800           0
     21519 TIP3     2573     TIP3     H2       HT       0.417000       1.00800           0
     21520 TIP3     2574     TIP3     OH2      OT      -0.834000       15.9994           0
     21521 TIP3     2574     TIP3     H1       HT       0.417000       1.00800           0
     21522 TIP3     2574     TIP3     H2       HT       0.417000       1.00800           0
     21523 TIP3     2575     TIP3     OH2      OT      -0.834000       15.9994           0
     21524 TIP3     2575     TIP3     H1       HT       0.417000       1.00800           0
     21525 TIP3     2575     TIP3     H2       HT       0.417000       1.00800           0
     21526 TIP3     2576     TIP3     OH2      OT      -0.834000       15.9994           0
     21527 TIP3     2576     TIP3     H1       HT       0.417000       1.00800           0
     21528 TIP3     2576     TIP3     H2       HT       0.417000       1.00800           0
     21529 TIP3     2577     TIP3     OH2      OT      -0.834000       15.9994           0
     21530 TIP3     2577     TIP3     H1       HT       0.417000       1.00800           0
     21531 TIP3     2577     TIP3     H2       HT       0.417000       1.00800           0
     21532 TIP3     2578     TIP3     OH2      OT      -0.834000       15.9994           0
     21533 TIP3     2578     TIP3     H1       HT       0.417000       1.00800           0
     21534 TIP3     2578     TIP3     H2       HT       0.417000       1.00800           0
     21535 TIP3     2579     TIP3     OH2      OT      -0.834000       15.9994           0
     21536 TIP3     2579     TIP3     H1       HT       0.417000       1.00800           0
     21537 TIP3     2579     TIP3     H2       HT       0.417000       1.00800           0
     21538 TIP3     2580     TIP3     OH2      OT      -0.834000       15.9994           0
     21539 TIP3     2580     TIP3     H1       HT       0.417000       1.00800           0
     21540 TIP3     2580     TIP3     H2       HT       0.417000       1.00800           0
     21541 TIP3     2581     TIP3     OH2      OT      -0.834000       15.9994           0
     21542 TIP3     2581     TIP3     H1       HT       0.417000       1.00800           0
     21543 TIP3     2581     TIP3     H2       HT       0.417000       1.00800           0
     21544 TIP3     2582     TIP3     OH2      OT      -0.834000       15.9994           0
     21545 TIP3     2582     TIP3     H1       HT       0.417000       1.00800           0
     21546 TIP3     2582     TIP3     H2       HT       0.417000       1.00800           0
     21547 TIP3     2583     TIP3     OH2      OT      -0.834000       15.9994           0
     21548 TIP3     2583     TIP3     H1       HT       0.417000       1.00800           0
     21549 TIP3     2583     TIP3     H2       HT       0.417000       1.00800           0
     21550 TIP3     2584     TIP3     OH2      OT      -0.834000       15.9994           0
     21551 TIP3     2584     TIP3     H1       HT       0.417000       1.00800           0
     21552 TIP3     2584     TIP3     H2       HT       0.417000       1.00800           0
     21553 TIP3     2585     TIP3     OH2      OT      -0.834000       15.9994           0
     21554 TIP3     2585     TIP3     H1       HT       0.417000       1.00800           0
     21555 TIP3     2585     TIP3     H2       HT       0.417000       1.00800           0
     21556 TIP3     2586     TIP3     OH2      OT      -0.834000       15.9994           0
     21557 TIP3     2586     TIP3     H1       HT       0.417000       1.00800           0
     21558 TIP3     2586     TIP3     H2       HT       0.417000       1.00800           0
     21559 TIP3     2587     TIP3     OH2      OT      -0.834000       15.9994           0
     21560 TIP3     2587     TIP3     H1       HT       0.417000       1.00800           0
     21561 TIP3     2587     TIP3     H2       HT       0.417000       1.00800           0
     21562 TIP3     2588     TIP3     OH2      OT      -0.834000       15.9994           0
     21563 TIP3     2588     TIP3     H1       HT       0.417000       1.00800           0
     21564 TIP3     2588     TIP3     H2       HT       0.417000       1.00800           0
     21565 TIP3     2589     TIP3     OH2      OT      -0.834000       15.9994           0
     21566 TIP3     2589     TIP3     H1       HT       0.417000       1.00800           0
     21567 TIP3     2589     TIP3     H2       HT       0.417000       1.00800           0
     21568 TIP3     2590     TIP3     OH2      OT      -0.834000       15.9994           0
     21569 TIP3     2590     TIP3     H1       HT       0.417000       1.00800           0
     21570 TIP3     2590     TIP3     H2       HT       0.417000       1.00800           0
     21571 TIP3     2591     TIP3     OH2      OT      -0.834000       15.9994           0
     21572 TIP3     2591     TIP3     H1       HT       0.417000       1.00800           0
     21573 TIP3     2591     TIP3     H2       HT       0.417000       1.00800           0
     21574 TIP3     2592     TIP3     OH2      OT      -0.834000       15.9994           0
     21575 TIP3     2592     TIP3     H1       HT       0.417000       1.00800           0
     21576 TIP3     2592     TIP3     H2       HT       0.417000       1.00800           0
     21577 TIP3     2593     TIP3     OH2      OT      -0.834000       15.9994           0
     21578 TIP3     2593     TIP3     H1       HT       0.417000       1.00800           0
     21579 TIP3     2593     TIP3     H2       HT       0.417000       1.00800           0
     21580 TIP3     2594     TIP3     OH2      OT      -0.834000       15.9994           0
     21581 TIP3     2594     TIP3     H1       HT       0.417000       1.00800           0
     21582 TIP3     2594     TIP3     H2       HT       0.417000       1.00800           0
     21583 TIP3     2595     TIP3     OH2      OT      -0.834000       15.9994           0
     21584 TIP3     2595     TIP3     H1       HT       0.417000       1.00800           0
     21585 TIP3     2595     TIP3     H2       HT       0.417000       1.00800           0
     21586 TIP3     2596     TIP3     OH2      OT      -0.834000       15.9994           0
     21587 TIP3     2596     TIP3     H1       HT       0.417000       1.00800           0
     21588 TIP3     2596     TIP3     H2       HT       0.417000       1.00800           0
     21589 TIP3     2597     TIP3     OH2      OT      -0.834000       15.9994           0
     21590 TIP3     2597     TIP3     H1       HT       0.417000       1.00800           0
     21591 TIP3     2597     TIP3     H2       HT       0.417000       1.00800           0
     21592 TIP3     2598     TIP3     OH2      OT      -0.834000       15.9994           0
     21593 TIP3     2598     TIP3     H1       HT       0.417000       1.00800           0
     21594 TIP3     2598     TIP3     H2       HT       0.417000       1.00800           0
     21595 TIP3     2599     TIP3     OH2      OT      -0.834000       15.9994           0
     21596 TIP3     2599     TIP3     H1       HT       0.417000       1.00800           0
     21597 TIP3     2599     TIP3     H2       HT       0.417000       1.00800           0
     21598 TIP3     2600     TIP3     OH2      OT      -0.834000       15.9994           0
     21599 TIP3     2600     TIP3     H1       HT       0.417000       1.00800           0
     21600 TIP3     2600     TIP3     H2       HT       0.417000       1.00800           0
     21601 TIP3     2601     TIP3     OH2      OT      -0.834000       15.9994           0
     21602 TIP3     2601     TIP3     H1       HT       0.417000       1.00800           0
     21603 TIP3     2601     TIP3     H2       HT       0.417000       1.00800           0
     21604 TIP3     2602     TIP3     OH2      OT      -0.834000       15.9994           0
     21605 TIP3     2602     TIP3     H1       HT       0.417000       1.00800           0
     21606 TIP3     2602     TIP3     H2       HT       0.417000       1.00800           0
     21607 TIP3     2603     TIP3     OH2      OT      -0.834000       15.9994           0
     21608 TIP3     2603     TIP3     H1       HT       0.417000       1.00800           0
     21609 TIP3     2603     TIP3     H2       HT       0.417000       1.00800           0
     21610 TIP3     2604     TIP3     OH2      OT      -0.834000       15.9994           0
     21611 TIP3     2604     TIP3     H1       HT       0.417000       1.00800           0
     21612 TIP3     2604     TIP3     H2       HT       0.417000       1.00800           0
     21613 TIP3     2605     TIP3     OH2      OT      -0.834000       15.9994           0
     21614 TIP3     2605     TIP3     H1       HT       0.417000       1.00800           0
     21615 TIP3     2605     TIP3     H2       HT       0.417000       1.00800           0
     21616 TIP3     2606     TIP3     OH2      OT      -0.834000       15.9994           0
     21617 TIP3     2606     TIP3     H1       HT       0.417000       1.00800           0
     21618 TIP3     2606     TIP3     H2       HT       0.417000       1.00800           0
     21619 TIP3     2607     TIP3     OH2      OT      -0.834000       15.9994           0
     21620 TIP3     2607     TIP3     H1       HT       0.417000       1.00800           0
     21621 TIP3     2607     TIP3     H2       HT       0.417000       1.00800           0
     21622 TIP3     2608     TIP3     OH2      OT      -0.834000       15.9994           0
     21623 TIP3     2608     TIP3     H1       HT       0.417000       1.00800           0
     21624 TIP3     2608     TIP3     H2       HT       0.417000       1.00800           0
     21625 TIP3     2609     TIP3     OH2      OT      -0.834000       15.9994           0
     21626 TIP3     2609     TIP3     H1       HT       0.417000       1.00800           0
     21627 TIP3     2609     TIP3     H2       HT       0.417000       1.00800           0
     21628 TIP3     2610     TIP3     OH2      OT      -0.834000       15.9994           0
     21629 TIP3     2610     TIP3     H1       HT       0.417000       1.00800           0
     21630 TIP3     2610     TIP3     H2       HT       0.417000       1.00800           0
     21631 TIP3     2611     TIP3     OH2      OT      -0.834000       15.9994           0
     21632 TIP3     2611     TIP3     H1       HT       0.417000       1.00800           0
     21633 TIP3     2611     TIP3     H2       HT       0.417000       1.00800           0
     21634 TIP3     2612     TIP3     OH2      OT      -0.834000       15.9994           0
     21635 TIP3     2612     TIP3     H1       HT       0.417000       1.00800           0
     21636 TIP3     2612     TIP3     H2       HT       0.417000       1.00800           0
     21637 TIP3     2613     TIP3     OH2      OT      -0.834000       15.9994           0
     21638 TIP3     2613     TIP3     H1       HT       0.417000       1.00800           0
     21639 TIP3     2613     TIP3     H2       HT       0.417000       1.00800           0
     21640 TIP3     2614     TIP3     OH2      OT      -0.834000       15.9994           0
     21641 TIP3     2614     TIP3     H1       HT       0.417000       1.00800           0
     21642 TIP3     2614     TIP3     H2       HT       0.417000       1.00800           0
     21643 TIP3     2615     TIP3     OH2      OT      -0.834000       15.9994           0
     21644 TIP3     2615     TIP3     H1       HT       0.417000       1.00800           0
     21645 TIP3     2615     TIP3     H2       HT       0.417000       1.00800           0
     21646 TIP3     2616     TIP3     OH2      OT      -0.834000       15.9994           0
     21647 TIP3     2616     TIP3     H1       HT       0.417000       1.00800           0
     21648 TIP3     2616     TIP3     H2       HT       0.417000       1.00800           0
     21649 TIP3     2617     TIP3     OH2      OT      -0.834000       15.9994           0
     21650 TIP3     2617     TIP3     H1       HT       0.417000       1.00800           0
     21651 TIP3     2617     TIP3     H2       HT       0.417000       1.00800           0
     21652 TIP3     2618     TIP3     OH2      OT      -0.834000       15.9994           0
     21653 TIP3     2618     TIP3     H1       HT       0.417000       1.00800           0
     21654 TIP3     2618     TIP3     H2       HT       0.417000       1.00800           0
     21655 TIP3     2619     TIP3     OH2      OT      -0.834000       15.9994           0
     21656 TIP3     2619     TIP3     H1       HT       0.417000       1.00800           0
     21657 TIP3     2619     TIP3     H2       HT       0.417000       1.00800           0
     21658 TIP3     2620     TIP3     OH2      OT      -0.834000       15.9994           0
     21659 TIP3     2620     TIP3     H1       HT       0.417000       1.00800           0
     21660 TIP3     2620     TIP3     H2       HT       0.417000       1.00800           0
     21661 TIP3     2621     TIP3     OH2      OT      -0.834000       15.9994           0
     21662 TIP3     2621     TIP3     H1       HT       0.417000       1.00800           0
     21663 TIP3     2621     TIP3     H2       HT       0.417000       1.00800           0
     21664 TIP3     2622     TIP3     OH2      OT      -0.834000       15.9994           0
     21665 TIP3     2622     TIP3     H1       HT       0.417000       1.00800           0
     21666 TIP3     2622     TIP3     H2       HT       0.417000       1.00800           0
     21667 TIP3     2623     TIP3     OH2      OT      -0.834000       15.9994           0
     21668 TIP3     2623     TIP3     H1       HT       0.417000       1.00800           0
     21669 TIP3     2623     TIP3     H2       HT       0.417000       1.00800           0
     21670 TIP3     2624     TIP3     OH2      OT      -0.834000       15.9994           0
     21671 TIP3     2624     TIP3     H1       HT       0.417000       1.00800           0
     21672 TIP3     2624     TIP3     H2       HT       0.417000       1.00800           0
     21673 TIP3     2625     TIP3     OH2      OT      -0.834000       15.9994           0
     21674 TIP3     2625     TIP3     H1       HT       0.417000       1.00800           0
     21675 TIP3     2625     TIP3     H2       HT       0.417000       1.00800           0
     21676 TIP3     2626     TIP3     OH2      OT      -0.834000       15.9994           0
     21677 TIP3     2626     TIP3     H1       HT       0.417000       1.00800           0
     21678 TIP3     2626     TIP3     H2       HT       0.417000       1.00800           0
     21679 TIP3     2627     TIP3     OH2      OT      -0.834000       15.9994           0
     21680 TIP3     2627     TIP3     H1       HT       0.417000       1.00800           0
     21681 TIP3     2627     TIP3     H2       HT       0.417000       1.00800           0
     21682 TIP3     2628     TIP3     OH2      OT      -0.834000       15.9994           0
     21683 TIP3     2628     TIP3     H1       HT       0.417000       1.00800           0
     21684 TIP3     2628     TIP3     H2       HT       0.417000       1.00800           0
     21685 TIP3     2629     TIP3     OH2      OT      -0.834000       15.9994           0
     21686 TIP3     2629     TIP3     H1       HT       0.417000       1.00800           0
     21687 TIP3     2629     TIP3     H2       HT       0.417000       1.00800           0
     21688 TIP3     2630     TIP3     OH2      OT      -0.834000       15.9994           0
     21689 TIP3     2630     TIP3     H1       HT       0.417000       1.00800           0
     21690 TIP3     2630     TIP3     H2       HT       0.417000       1.00800           0
     21691 TIP3     2631     TIP3     OH2      OT      -0.834000       15.9994           0
     21692 TIP3     2631     TIP3     H1       HT       0.417000       1.00800           0
     21693 TIP3     2631     TIP3     H2       HT       0.417000       1.00800           0
     21694 TIP3     2632     TIP3     OH2      OT      -0.834000       15.9994           0
     21695 TIP3     2632     TIP3     H1       HT       0.417000       1.00800           0
     21696 TIP3     2632     TIP3     H2       HT       0.417000       1.00800           0
     21697 TIP3     2633     TIP3     OH2      OT      -0.834000       15.9994           0
     21698 TIP3     2633     TIP3     H1       HT       0.417000       1.00800           0
     21699 TIP3     2633     TIP3     H2       HT       0.417000       1.00800           0
     21700 TIP3     2634     TIP3     OH2      OT      -0.834000       15.9994           0
     21701 TIP3     2634     TIP3     H1       HT       0.417000       1.00800           0
     21702 TIP3     2634     TIP3     H2       HT       0.417000       1.00800           0
     21703 TIP3     2635     TIP3     OH2      OT      -0.834000       15.9994           0
     21704 TIP3     2635     TIP3     H1       HT       0.417000       1.00800           0
     21705 TIP3     2635     TIP3     H2       HT       0.417000       1.00800           0
     21706 TIP3     2636     TIP3     OH2      OT      -0.834000       15.9994           0
     21707 TIP3     2636     TIP3     H1       HT       0.417000       1.00800           0
     21708 TIP3     2636     TIP3     H2       HT       0.417000       1.00800           0
     21709 TIP3     2637     TIP3     OH2      OT      -0.834000       15.9994           0
     21710 TIP3     2637     TIP3     H1       HT       0.417000       1.00800           0
     21711 TIP3     2637     TIP3     H2       HT       0.417000       1.00800           0
     21712 TIP3     2638     TIP3     OH2      OT      -0.834000       15.9994           0
     21713 TIP3     2638     TIP3     H1       HT       0.417000       1.00800           0
     21714 TIP3     2638     TIP3     H2       HT       0.417000       1.00800           0
     21715 TIP3     2639     TIP3     OH2      OT      -0.834000       15.9994           0
     21716 TIP3     2639     TIP3     H1       HT       0.417000       1.00800           0
     21717 TIP3     2639     TIP3     H2       HT       0.417000       1.00800           0
     21718 TIP3     2640     TIP3     OH2      OT      -0.834000       15.9994           0
     21719 TIP3     2640     TIP3     H1       HT       0.417000       1.00800           0
     21720 TIP3     2640     TIP3     H2       HT       0.417000       1.00800           0
     21721 TIP3     2641     TIP3     OH2      OT      -0.834000       15.9994           0
     21722 TIP3     2641     TIP3     H1       HT       0.417000       1.00800           0
     21723 TIP3     2641     TIP3     H2       HT       0.417000       1.00800           0
     21724 TIP3     2642     TIP3     OH2      OT      -0.834000       15.9994           0
     21725 TIP3     2642     TIP3     H1       HT       0.417000       1.00800           0
     21726 TIP3     2642     TIP3     H2       HT       0.417000       1.00800           0
     21727 TIP3     2643     TIP3     OH2      OT      -0.834000       15.9994           0
     21728 TIP3     2643     TIP3     H1       HT       0.417000       1.00800           0
     21729 TIP3     2643     TIP3     H2       HT       0.417000       1.00800           0
     21730 TIP3     2644     TIP3     OH2      OT      -0.834000       15.9994           0
     21731 TIP3     2644     TIP3     H1       HT       0.417000       1.00800           0
     21732 TIP3     2644     TIP3     H2       HT       0.417000       1.00800           0
     21733 TIP3     2645     TIP3     OH2      OT      -0.834000       15.9994           0
     21734 TIP3     2645     TIP3     H1       HT       0.417000       1.00800           0
     21735 TIP3     2645     TIP3     H2       HT       0.417000       1.00800           0
     21736 TIP3     2646     TIP3     OH2      OT      -0.834000       15.9994           0
     21737 TIP3     2646     TIP3     H1       HT       0.417000       1.00800           0
     21738 TIP3     2646     TIP3     H2       HT       0.417000       1.00800           0
     21739 TIP3     2647     TIP3     OH2      OT      -0.834000       15.9994           0
     21740 TIP3     2647     TIP3     H1       HT       0.417000       1.00800           0
     21741 TIP3     2647     TIP3     H2       HT       0.417000       1.00800           0
     21742 TIP3     2648     TIP3     OH2      OT      -0.834000       15.9994           0
     21743 TIP3     2648     TIP3     H1       HT       0.417000       1.00800           0
     21744 TIP3     2648     TIP3     H2       HT       0.417000       1.00800           0
     21745 TIP3     2649     TIP3     OH2      OT      -0.834000       15.9994           0
     21746 TIP3     2649     TIP3     H1       HT       0.417000       1.00800           0
     21747 TIP3     2649     TIP3     H2       HT       0.417000       1.00800           0
     21748 TIP3     2650     TIP3     OH2      OT      -0.834000       15.9994           0
     21749 TIP3     2650     TIP3     H1       HT       0.417000       1.00800           0
     21750 TIP3     2650     TIP3     H2       HT       0.417000       1.00800           0
     21751 TIP3     2651     TIP3     OH2      OT      -0.834000       15.9994           0
     21752 TIP3     2651     TIP3     H1       HT       0.417000       1.00800           0
     21753 TIP3     2651     TIP3     H2       HT       0.417000       1.00800           0
     21754 TIP3     2652     TIP3     OH2      OT      -0.834000       15.9994           0
     21755 TIP3     2652     TIP3     H1       HT       0.417000       1.00800           0
     21756 TIP3     2652     TIP3     H2       HT       0.417000       1.00800           0
     21757 TIP3     2653     TIP3     OH2      OT      -0.834000       15.9994           0
     21758 TIP3     2653     TIP3     H1       HT       0.417000       1.00800           0
     21759 TIP3     2653     TIP3     H2       HT       0.417000       1.00800           0
     21760 TIP3     2654     TIP3     OH2      OT      -0.834000       15.9994           0
     21761 TIP3     2654     TIP3     H1       HT       0.417000       1.00800           0
     21762 TIP3     2654     TIP3     H2       HT       0.417000       1.00800           0
     21763 TIP3     2655     TIP3     OH2      OT      -0.834000       15.9994           0
     21764 TIP3     2655     TIP3     H1       HT       0.417000       1.00800           0
     21765 TIP3     2655     TIP3     H2       HT       0.417000       1.00800           0
     21766 TIP3     2656     TIP3     OH2      OT      -0.834000       15.9994           0
     21767 TIP3     2656     TIP3     H1       HT       0.417000       1.00800           0
     21768 TIP3     2656     TIP3     H2       HT       0.417000       1.00800           0
     21769 TIP3     2657     TIP3     OH2      OT      -0.834000       15.9994           0
     21770 TIP3     2657     TIP3     H1       HT       0.417000       1.00800           0
     21771 TIP3     2657     TIP3     H2       HT       0.417000       1.00800           0
     21772 TIP3     2658     TIP3     OH2      OT      -0.834000       15.9994           0
     21773 TIP3     2658     TIP3     H1       HT       0.417000       1.00800           0
     21774 TIP3     2658     TIP3     H2       HT       0.417000       1.00800           0
     21775 TIP3     2659     TIP3     OH2      OT      -0.834000       15.9994           0
     21776 TIP3     2659     TIP3     H1       HT       0.417000       1.00800           0
     21777 TIP3     2659     TIP3     H2       HT       0.417000       1.00800           0
     21778 TIP3     2660     TIP3     OH2      OT      -0.834000       15.9994           0
     21779 TIP3     2660     TIP3     H1       HT       0.417000       1.00800           0
     21780 TIP3     2660     TIP3     H2       HT       0.417000       1.00800           0
     21781 TIP3     2661     TIP3     OH2      OT      -0.834000       15.9994           0
     21782 TIP3     2661     TIP3     H1       HT       0.417000       1.00800           0
     21783 TIP3     2661     TIP3     H2       HT       0.417000       1.00800           0
     21784 TIP3     2662     TIP3     OH2      OT      -0.834000       15.9994           0
     21785 TIP3     2662     TIP3     H1       HT       0.417000       1.00800           0
     21786 TIP3     2662     TIP3     H2       HT       0.417000       1.00800           0
     21787 TIP3     2663     TIP3     OH2      OT      -0.834000       15.9994           0
     21788 TIP3     2663     TIP3     H1       HT       0.417000       1.00800           0
     21789 TIP3     2663     TIP3     H2       HT       0.417000       1.00800           0
     21790 TIP3     2664     TIP3     OH2      OT      -0.834000       15.9994           0
     21791 TIP3     2664     TIP3     H1       HT       0.417000       1.00800           0
     21792 TIP3     2664     TIP3     H2       HT       0.417000       1.00800           0
     21793 TIP3     2665     TIP3     OH2      OT      -0.834000       15.9994           0
     21794 TIP3     2665     TIP3     H1       HT       0.417000       1.00800           0
     21795 TIP3     2665     TIP3     H2       HT       0.417000       1.00800           0
     21796 TIP3     2666     TIP3     OH2      OT      -0.834000       15.9994           0
     21797 TIP3     2666     TIP3     H1       HT       0.417000       1.00800           0
     21798 TIP3     2666     TIP3     H2       HT       0.417000       1.00800           0
     21799 TIP3     2667     TIP3     OH2      OT      -0.834000       15.9994           0
     21800 TIP3     2667     TIP3     H1       HT       0.417000       1.00800           0
     21801 TIP3     2667     TIP3     H2       HT       0.417000       1.00800           0
     21802 TIP3     2668     TIP3     OH2      OT      -0.834000       15.9994           0
     21803 TIP3     2668     TIP3     H1       HT       0.417000       1.00800           0
     21804 TIP3     2668     TIP3     H2       HT       0.417000       1.00800           0
     21805 TIP3     2669     TIP3     OH2      OT      -0.834000       15.9994           0
     21806 TIP3     2669     TIP3     H1       HT       0.417000       1.00800           0
     21807 TIP3     2669     TIP3     H2       HT       0.417000       1.00800           0
     21808 TIP3     2670     TIP3     OH2      OT      -0.834000       15.9994           0
     21809 TIP3     2670     TIP3     H1       HT       0.417000       1.00800           0
     21810 TIP3     2670     TIP3     H2       HT       0.417000       1.00800           0
     21811 TIP3     2671     TIP3     OH2      OT      -0.834000       15.9994           0
     21812 TIP3     2671     TIP3     H1       HT       0.417000       1.00800           0
     21813 TIP3     2671     TIP3     H2       HT       0.417000       1.00800           0
     21814 TIP3     2672     TIP3     OH2      OT      -0.834000       15.9994           0
     21815 TIP3     2672     TIP3     H1       HT       0.417000       1.00800           0
     21816 TIP3     2672     TIP3     H2       HT       0.417000       1.00800           0
     21817 TIP3     2673     TIP3     OH2      OT      -0.834000       15.9994           0
     21818 TIP3     2673     TIP3     H1       HT       0.417000       1.00800           0
     21819 TIP3     2673     TIP3     H2       HT       0.417000       1.00800           0
     21820 TIP3     2674     TIP3     OH2      OT      -0.834000       15.9994           0
     21821 TIP3     2674     TIP3     H1       HT       0.417000       1.00800           0
     21822 TIP3     2674     TIP3     H2       HT       0.417000       1.00800           0
     21823 TIP3     2675     TIP3     OH2      OT      -0.834000       15.9994           0
     21824 TIP3     2675     TIP3     H1       HT       0.417000       1.00800           0
     21825 TIP3     2675     TIP3     H2       HT       0.417000       1.00800           0
     21826 TIP3     2676     TIP3     OH2      OT      -0.834000       15.9994           0
     21827 TIP3     2676     TIP3     H1       HT       0.417000       1.00800           0
     21828 TIP3     2676     TIP3     H2       HT       0.417000       1.00800           0
     21829 TIP3     2677     TIP3     OH2      OT      -0.834000       15.9994           0
     21830 TIP3     2677     TIP3     H1       HT       0.417000       1.00800           0
     21831 TIP3     2677     TIP3     H2       HT       0.417000       1.00800           0
     21832 TIP3     2678     TIP3     OH2      OT      -0.834000       15.9994           0
     21833 TIP3     2678     TIP3     H1       HT       0.417000       1.00800           0
     21834 TIP3     2678     TIP3     H2       HT       0.417000       1.00800           0
     21835 TIP3     2679     TIP3     OH2      OT      -0.834000       15.9994           0
     21836 TIP3     2679     TIP3     H1       HT       0.417000       1.00800           0
     21837 TIP3     2679     TIP3     H2       HT       0.417000       1.00800           0
     21838 TIP3     2680     TIP3     OH2      OT      -0.834000       15.9994           0
     21839 TIP3     2680     TIP3     H1       HT       0.417000       1.00800           0
     21840 TIP3     2680     TIP3     H2       HT       0.417000       1.00800           0
     21841 TIP3     2681     TIP3     OH2      OT      -0.834000       15.9994           0
     21842 TIP3     2681     TIP3     H1       HT       0.417000       1.00800           0
     21843 TIP3     2681     TIP3     H2       HT       0.417000       1.00800           0
     21844 TIP3     2682     TIP3     OH2      OT      -0.834000       15.9994           0
     21845 TIP3     2682     TIP3     H1       HT       0.417000       1.00800           0
     21846 TIP3     2682     TIP3     H2       HT       0.417000       1.00800           0
     21847 TIP3     2683     TIP3     OH2      OT      -0.834000       15.9994           0
     21848 TIP3     2683     TIP3     H1       HT       0.417000       1.00800           0
     21849 TIP3     2683     TIP3     H2       HT       0.417000       1.00800           0
     21850 TIP3     2684     TIP3     OH2      OT      -0.834000       15.9994           0
     21851 TIP3     2684     TIP3     H1       HT       0.417000       1.00800           0
     21852 TIP3     2684     TIP3     H2       HT       0.417000       1.00800           0
     21853 TIP3     2685     TIP3     OH2      OT      -0.834000       15.9994           0
     21854 TIP3     2685     TIP3     H1       HT       0.417000       1.00800           0
     21855 TIP3     2685     TIP3     H2       HT       0.417000       1.00800           0
     21856 TIP3     2686     TIP3     OH2      OT      -0.834000       15.9994           0
     21857 TIP3     2686     TIP3     H1       HT       0.417000       1.00800           0
     21858 TIP3     2686     TIP3     H2       HT       0.417000       1.00800           0
     21859 TIP3     2687     TIP3     OH2      OT      -0.834000       15.9994           0
     21860 TIP3     2687     TIP3     H1       HT       0.417000       1.00800           0
     21861 TIP3     2687     TIP3     H2       HT       0.417000       1.00800           0
     21862 TIP3     2688     TIP3     OH2      OT      -0.834000       15.9994           0
     21863 TIP3     2688     TIP3     H1       HT       0.417000       1.00800           0
     21864 TIP3     2688     TIP3     H2       HT       0.417000       1.00800           0
     21865 TIP3     2689     TIP3     OH2      OT      -0.834000       15.9994           0
     21866 TIP3     2689     TIP3     H1       HT       0.417000       1.00800           0
     21867 TIP3     2689     TIP3     H2       HT       0.417000       1.00800           0
     21868 TIP3     2690     TIP3     OH2      OT      -0.834000       15.9994           0
     21869 TIP3     2690     TIP3     H1       HT       0.417000       1.00800           0
     21870 TIP3     2690     TIP3     H2       HT       0.417000       1.00800           0
     21871 TIP3     2691     TIP3     OH2      OT      -0.834000       15.9994           0
     21872 TIP3     2691     TIP3     H1       HT       0.417000       1.00800           0
     21873 TIP3     2691     TIP3     H2       HT       0.417000       1.00800           0
     21874 TIP3     2692     TIP3     OH2      OT      -0.834000       15.9994           0
     21875 TIP3     2692     TIP3     H1       HT       0.417000       1.00800           0
     21876 TIP3     2692     TIP3     H2       HT       0.417000       1.00800           0
     21877 TIP3     2693     TIP3     OH2      OT      -0.834000       15.9994           0
     21878 TIP3     2693     TIP3     H1       HT       0.417000       1.00800           0
     21879 TIP3     2693     TIP3     H2       HT       0.417000       1.00800           0
     21880 TIP3     2694     TIP3     OH2      OT      -0.834000       15.9994           0
     21881 TIP3     2694     TIP3     H1       HT       0.417000       1.00800           0
     21882 TIP3     2694     TIP3     H2       HT       0.417000       1.00800           0
     21883 TIP3     2695     TIP3     OH2      OT      -0.834000       15.9994           0
     21884 TIP3     2695     TIP3     H1       HT       0.417000       1.00800           0
     21885 TIP3     2695     TIP3     H2       HT       0.417000       1.00800           0
     21886 TIP3     2696     TIP3     OH2      OT      -0.834000       15.9994           0
     21887 TIP3     2696     TIP3     H1       HT       0.417000       1.00800           0
     21888 TIP3     2696     TIP3     H2       HT       0.417000       1.00800           0
     21889 TIP3     2697     TIP3     OH2      OT      -0.834000       15.9994           0
     21890 TIP3     2697     TIP3     H1       HT       0.417000       1.00800           0
     21891 TIP3     2697     TIP3     H2       HT       0.417000       1.00800           0
     21892 TIP3     2698     TIP3     OH2      OT      -0.834000       15.9994           0
     21893 TIP3     2698     TIP3     H1       HT       0.417000       1.00800           0
     21894 TIP3     2698     TIP3     H2       HT       0.417000       1.00800           0
     21895 TIP3     2699     TIP3     OH2      OT      -0.834000       15.9994           0
     21896 TIP3     2699     TIP3     H1       HT       0.417000       1.00800           0
     21897 TIP3     2699     TIP3     H2       HT       0.417000       1.00800           0
     21898 TIP3     2700     TIP3     OH2      OT      -0.834000       15.9994           0
     21899 TIP3     2700     TIP3     H1       HT       0.417000       1.00800           0
     21900 TIP3     2700     TIP3     H2       HT       0.417000       1.00800           0
     21901 TIP3     2701     TIP3     OH2      OT      -0.834000       15.9994           0
     21902 TIP3     2701     TIP3     H1       HT       0.417000       1.00800           0
     21903 TIP3     2701     TIP3     H2       HT       0.417000       1.00800           0
     21904 TIP3     2702     TIP3     OH2      OT      -0.834000       15.9994           0
     21905 TIP3     2702     TIP3     H1       HT       0.417000       1.00800           0
     21906 TIP3     2702     TIP3     H2       HT       0.417000       1.00800           0
     21907 TIP3     2703     TIP3     OH2      OT      -0.834000       15.9994           0
     21908 TIP3     2703     TIP3     H1       HT       0.417000       1.00800           0
     21909 TIP3     2703     TIP3     H2       HT       0.417000       1.00800           0
     21910 TIP3     2704     TIP3     OH2      OT      -0.834000       15.9994           0
     21911 TIP3     2704     TIP3     H1       HT       0.417000       1.00800           0
     21912 TIP3     2704     TIP3     H2       HT       0.417000       1.00800           0
     21913 TIP3     2705     TIP3     OH2      OT      -0.834000       15.9994           0
     21914 TIP3     2705     TIP3     H1       HT       0.417000       1.00800           0
     21915 TIP3     2705     TIP3     H2       HT       0.417000       1.00800           0
     21916 TIP3     2706     TIP3     OH2      OT      -0.834000       15.9994           0
     21917 TIP3     2706     TIP3     H1       HT       0.417000       1.00800           0
     21918 TIP3     2706     TIP3     H2       HT       0.417000       1.00800           0
     21919 TIP3     2707     TIP3     OH2      OT      -0.834000       15.9994           0
     21920 TIP3     2707     TIP3     H1       HT       0.417000       1.00800           0
     21921 TIP3     2707     TIP3     H2       HT       0.417000       1.00800           0
     21922 TIP3     2708     TIP3     OH2      OT      -0.834000       15.9994           0
     21923 TIP3     2708     TIP3     H1       HT       0.417000       1.00800           0
     21924 TIP3     2708     TIP3     H2       HT       0.417000       1.00800           0
     21925 TIP3     2709     TIP3     OH2      OT      -0.834000       15.9994           0
     21926 TIP3     2709     TIP3     H1       HT       0.417000       1.00800           0
     21927 TIP3     2709     TIP3     H2       HT       0.417000       1.00800           0
     21928 TIP3     2710     TIP3     OH2      OT      -0.834000       15.9994           0
     21929 TIP3     2710     TIP3     H1       HT       0.417000       1.00800           0
     21930 TIP3     2710     TIP3     H2       HT       0.417000       1.00800           0
     21931 TIP3     2711     TIP3     OH2      OT      -0.834000       15.9994           0
     21932 TIP3     2711     TIP3     H1       HT       0.417000       1.00800           0
     21933 TIP3     2711     TIP3     H2       HT       0.417000       1.00800           0
     21934 TIP3     2712     TIP3     OH2      OT      -0.834000       15.9994           0
     21935 TIP3     2712     TIP3     H1       HT       0.417000       1.00800           0
     21936 TIP3     2712     TIP3     H2       HT       0.417000       1.00800           0
     21937 TIP3     2713     TIP3     OH2      OT      -0.834000       15.9994           0
     21938 TIP3     2713     TIP3     H1       HT       0.417000       1.00800           0
     21939 TIP3     2713     TIP3     H2       HT       0.417000       1.00800           0
     21940 TIP3     2714     TIP3     OH2      OT      -0.834000       15.9994           0
     21941 TIP3     2714     TIP3     H1       HT       0.417000       1.00800           0
     21942 TIP3     2714     TIP3     H2       HT       0.417000       1.00800           0
     21943 TIP3     2715     TIP3     OH2      OT      -0.834000       15.9994           0
     21944 TIP3     2715     TIP3     H1       HT       0.417000       1.00800           0
     21945 TIP3     2715     TIP3     H2       HT       0.417000       1.00800           0
     21946 TIP3     2716     TIP3     OH2      OT      -0.834000       15.9994           0
     21947 TIP3     2716     TIP3     H1       HT       0.417000       1.00800           0
     21948 TIP3     2716     TIP3     H2       HT       0.417000       1.00800           0
     21949 TIP3     2717     TIP3     OH2      OT      -0.834000       15.9994           0
     21950 TIP3     2717     TIP3     H1       HT       0.417000       1.00800           0
     21951 TIP3     2717     TIP3     H2       HT       0.417000       1.00800           0
     21952 TIP3     2718     TIP3     OH2      OT      -0.834000       15.9994           0
     21953 TIP3     2718     TIP3     H1       HT       0.417000       1.00800           0
     21954 TIP3     2718     TIP3     H2       HT       0.417000       1.00800           0
     21955 TIP3     2719     TIP3     OH2      OT      -0.834000       15.9994           0
     21956 TIP3     2719     TIP3     H1       HT       0.417000       1.00800           0
     21957 TIP3     2719     TIP3     H2       HT       0.417000       1.00800           0
     21958 TIP3     2720     TIP3     OH2      OT      -0.834000       15.9994           0
     21959 TIP3     2720     TIP3     H1       HT       0.417000       1.00800           0
     21960 TIP3     2720     TIP3     H2       HT       0.417000       1.00800           0
     21961 TIP3     2721     TIP3     OH2      OT      -0.834000       15.9994           0
     21962 TIP3     2721     TIP3     H1       HT       0.417000       1.00800           0
     21963 TIP3     2721     TIP3     H2       HT       0.417000       1.00800           0
     21964 TIP3     2722     TIP3     OH2      OT      -0.834000       15.9994           0
     21965 TIP3     2722     TIP3     H1       HT       0.417000       1.00800           0
     21966 TIP3     2722     TIP3     H2       HT       0.417000       1.00800           0
     21967 TIP3     2723     TIP3     OH2      OT      -0.834000       15.9994           0
     21968 TIP3     2723     TIP3     H1       HT       0.417000       1.00800           0
     21969 TIP3     2723     TIP3     H2       HT       0.417000       1.00800           0
     21970 TIP3     2724     TIP3     OH2      OT      -0.834000       15.9994           0
     21971 TIP3     2724     TIP3     H1       HT       0.417000       1.00800           0
     21972 TIP3     2724     TIP3     H2       HT       0.417000       1.00800           0
     21973 TIP3     2725     TIP3     OH2      OT      -0.834000       15.9994           0
     21974 TIP3     2725     TIP3     H1       HT       0.417000       1.00800           0
     21975 TIP3     2725     TIP3     H2       HT       0.417000       1.00800           0
     21976 TIP3     2726     TIP3     OH2      OT      -0.834000       15.9994           0
     21977 TIP3     2726     TIP3     H1       HT       0.417000       1.00800           0
     21978 TIP3     2726     TIP3     H2       HT       0.417000       1.00800           0
     21979 TIP3     2727     TIP3     OH2      OT      -0.834000       15.9994           0
     21980 TIP3     2727     TIP3     H1       HT       0.417000       1.00800           0
     21981 TIP3     2727     TIP3     H2       HT       0.417000       1.00800           0
     21982 TIP3     2728     TIP3     OH2      OT      -0.834000       15.9994           0
     21983 TIP3     2728     TIP3     H1       HT       0.417000       1.00800           0
     21984 TIP3     2728     TIP3     H2       HT       0.417000       1.00800           0
     21985 TIP3     2729     TIP3     OH2      OT      -0.834000       15.9994           0
     21986 TIP3     2729     TIP3     H1       HT       0.417000       1.00800           0
     21987 TIP3     2729     TIP3     H2       HT       0.417000       1.00800           0
     21988 TIP3     2730     TIP3     OH2      OT      -0.834000       15.9994           0
     21989 TIP3     2730     TIP3     H1       HT       0.417000       1.00800           0
     21990 TIP3     2730     TIP3     H2       HT       0.417000       1.00800           0
     21991 TIP3     2731     TIP3     OH2      OT      -0.834000       15.9994           0
     21992 TIP3     2731     TIP3     H1       HT       0.417000       1.00800           0
     21993 TIP3     2731     TIP3     H2       HT       0.417000       1.00800           0
     21994 TIP3     2732     TIP3     OH2      OT      -0.834000       15.9994           0
     21995 TIP3     2732     TIP3     H1       HT       0.417000       1.00800           0
     21996 TIP3     2732     TIP3     H2       HT       0.417000       1.00800           0
     21997 TIP3     2733     TIP3     OH2      OT      -0.834000       15.9994           0
     21998 TIP3     2733     TIP3     H1       HT       0.417000       1.00800           0
     21999 TIP3     2733     TIP3     H2       HT       0.417000       1.00800           0
     22000 TIP3     2734     TIP3     OH2      OT      -0.834000       15.9994           0
     22001 TIP3     2734     TIP3     H1       HT       0.417000       1.00800           0
     22002 TIP3     2734     TIP3     H2       HT       0.417000       1.00800           0
     22003 TIP3     2735     TIP3     OH2      OT      -0.834000       15.9994           0
     22004 TIP3     2735     TIP3     H1       HT       0.417000       1.00800           0
     22005 TIP3     2735     TIP3     H2       HT       0.417000       1.00800           0
     22006 TIP3     2736     TIP3     OH2      OT      -0.834000       15.9994           0
     22007 TIP3     2736     TIP3     H1       HT       0.417000       1.00800           0
     22008 TIP3     2736     TIP3     H2       HT       0.417000       1.00800           0
     22009 TIP3     2737     TIP3     OH2      OT      -0.834000       15.9994           0
     22010 TIP3     2737     TIP3     H1       HT       0.417000       1.00800           0
     22011 TIP3     2737     TIP3     H2       HT       0.417000       1.00800           0
     22012 TIP3     2738     TIP3     OH2      OT      -0.834000       15.9994           0
     22013 TIP3     2738     TIP3     H1       HT       0.417000       1.00800           0
     22014 TIP3     2738     TIP3     H2       HT       0.417000       1.00800           0
     22015 TIP3     2739     TIP3     OH2      OT      -0.834000       15.9994           0
     22016 TIP3     2739     TIP3     H1       HT       0.417000       1.00800           0
     22017 TIP3     2739     TIP3     H2       HT       0.417000       1.00800           0
     22018 TIP3     2740     TIP3     OH2      OT      -0.834000       15.9994           0
     22019 TIP3     2740     TIP3     H1       HT       0.417000       1.00800           0
     22020 TIP3     2740     TIP3     H2       HT       0.417000       1.00800           0
     22021 TIP3     2741     TIP3     OH2      OT      -0.834000       15.9994           0
     22022 TIP3     2741     TIP3     H1       HT       0.417000       1.00800           0
     22023 TIP3     2741     TIP3     H2       HT       0.417000       1.00800           0
     22024 TIP3     2742     TIP3     OH2      OT      -0.834000       15.9994           0
     22025 TIP3     2742     TIP3     H1       HT       0.417000       1.00800           0
     22026 TIP3     2742     TIP3     H2       HT       0.417000       1.00800           0
     22027 TIP3     2743     TIP3     OH2      OT      -0.834000       15.9994           0
     22028 TIP3     2743     TIP3     H1       HT       0.417000       1.00800           0
     22029 TIP3     2743     TIP3     H2       HT       0.417000       1.00800           0
     22030 TIP3     2744     TIP3     OH2      OT      -0.834000       15.9994           0
     22031 TIP3     2744     TIP3     H1       HT       0.417000       1.00800           0
     22032 TIP3     2744     TIP3     H2       HT       0.417000       1.00800           0
     22033 TIP3     2745     TIP3     OH2      OT      -0.834000       15.9994           0
     22034 TIP3     2745     TIP3     H1       HT       0.417000       1.00800           0
     22035 TIP3     2745     TIP3     H2       HT       0.417000       1.00800           0
     22036 TIP3     2746     TIP3     OH2      OT      -0.834000       15.9994           0
     22037 TIP3     2746     TIP3     H1       HT       0.417000       1.00800           0
     22038 TIP3     2746     TIP3     H2       HT       0.417000       1.00800           0
     22039 TIP3     2747     TIP3     OH2      OT      -0.834000       15.9994           0
     22040 TIP3     2747     TIP3     H1       HT       0.417000       1.00800           0
     22041 TIP3     2747     TIP3     H2       HT       0.417000       1.00800           0
     22042 TIP3     2748     TIP3     OH2      OT      -0.834000       15.9994           0
     22043 TIP3     2748     TIP3     H1       HT       0.417000       1.00800           0
     22044 TIP3     2748     TIP3     H2       HT       0.417000       1.00800           0
     22045 TIP3     2749     TIP3     OH2      OT      -0.834000       15.9994           0
     22046 TIP3     2749     TIP3     H1       HT       0.417000       1.00800           0
     22047 TIP3     2749     TIP3     H2       HT       0.417000       1.00800           0
     22048 TIP3     2750     TIP3     OH2      OT      -0.834000       15.9994           0
     22049 TIP3     2750     TIP3     H1       HT       0.417000       1.00800           0
     22050 TIP3     2750     TIP3     H2       HT       0.417000       1.00800           0
     22051 TIP3     2751     TIP3     OH2      OT      -0.834000       15.9994           0
     22052 TIP3     2751     TIP3     H1       HT       0.417000       1.00800           0
     22053 TIP3     2751     TIP3     H2       HT       0.417000       1.00800           0
     22054 TIP3     2752     TIP3     OH2      OT      -0.834000       15.9994           0
     22055 TIP3     2752     TIP3     H1       HT       0.417000       1.00800           0
     22056 TIP3     2752     TIP3     H2       HT       0.417000       1.00800           0
     22057 TIP3     2753     TIP3     OH2      OT      -0.834000       15.9994           0
     22058 TIP3     2753     TIP3     H1       HT       0.417000       1.00800           0
     22059 TIP3     2753     TIP3     H2       HT       0.417000       1.00800           0
     22060 TIP3     2754     TIP3     OH2      OT      -0.834000       15.9994           0
     22061 TIP3     2754     TIP3     H1       HT       0.417000       1.00800           0
     22062 TIP3     2754     TIP3     H2       HT       0.417000       1.00800           0
     22063 TIP3     2755     TIP3     OH2      OT      -0.834000       15.9994           0
     22064 TIP3     2755     TIP3     H1       HT       0.417000       1.00800           0
     22065 TIP3     2755     TIP3     H2       HT       0.417000       1.00800           0
     22066 TIP3     2756     TIP3     OH2      OT      -0.834000       15.9994           0
     22067 TIP3     2756     TIP3     H1       HT       0.417000       1.00800           0
     22068 TIP3     2756     TIP3     H2       HT       0.417000       1.00800           0
     22069 TIP3     2757     TIP3     OH2      OT      -0.834000       15.9994           0
     22070 TIP3     2757     TIP3     H1       HT       0.417000       1.00800           0
     22071 TIP3     2757     TIP3     H2       HT       0.417000       1.00800           0
     22072 TIP3     2758     TIP3     OH2      OT      -0.834000       15.9994           0
     22073 TIP3     2758     TIP3     H1       HT       0.417000       1.00800           0
     22074 TIP3     2758     TIP3     H2       HT       0.417000       1.00800           0
     22075 TIP3     2759     TIP3     OH2      OT      -0.834000       15.9994           0
     22076 TIP3     2759     TIP3     H1       HT       0.417000       1.00800           0
     22077 TIP3     2759     TIP3     H2       HT       0.417000       1.00800           0
     22078 TIP3     2760     TIP3     OH2      OT      -0.834000       15.9994           0
     22079 TIP3     2760     TIP3     H1       HT       0.417000       1.00800           0
     22080 TIP3     2760     TIP3     H2       HT       0.417000       1.00800           0
     22081 TIP3     2761     TIP3     OH2      OT      -0.834000       15.9994           0
     22082 TIP3     2761     TIP3     H1       HT       0.417000       1.00800           0
     22083 TIP3     2761     TIP3     H2       HT       0.417000       1.00800           0
     22084 TIP3     2762     TIP3     OH2      OT      -0.834000       15.9994           0
     22085 TIP3     2762     TIP3     H1       HT       0.417000       1.00800           0
     22086 TIP3     2762     TIP3     H2       HT       0.417000       1.00800           0
     22087 TIP3     2763     TIP3     OH2      OT      -0.834000       15.9994           0
     22088 TIP3     2763     TIP3     H1       HT       0.417000       1.00800           0
     22089 TIP3     2763     TIP3     H2       HT       0.417000       1.00800           0
     22090 TIP3     2764     TIP3     OH2      OT      -0.834000       15.9994           0
     22091 TIP3     2764     TIP3     H1       HT       0.417000       1.00800           0
     22092 TIP3     2764     TIP3     H2       HT       0.417000       1.00800           0
     22093 TIP3     2765     TIP3     OH2      OT      -0.834000       15.9994           0
     22094 TIP3     2765     TIP3     H1       HT       0.417000       1.00800           0
     22095 TIP3     2765     TIP3     H2       HT       0.417000       1.00800           0
     22096 TIP3     2766     TIP3     OH2      OT      -0.834000       15.9994           0
     22097 TIP3     2766     TIP3     H1       HT       0.417000       1.00800           0
     22098 TIP3     2766     TIP3     H2       HT       0.417000       1.00800           0
     22099 TIP3     2767     TIP3     OH2      OT      -0.834000       15.9994           0
     22100 TIP3     2767     TIP3     H1       HT       0.417000       1.00800           0
     22101 TIP3     2767     TIP3     H2       HT       0.417000       1.00800           0
     22102 TIP3     2768     TIP3     OH2      OT      -0.834000       15.9994           0
     22103 TIP3     2768     TIP3     H1       HT       0.417000       1.00800           0
     22104 TIP3     2768     TIP3     H2       HT       0.417000       1.00800           0
     22105 TIP3     2769     TIP3     OH2      OT      -0.834000       15.9994           0
     22106 TIP3     2769     TIP3     H1       HT       0.417000       1.00800           0
     22107 TIP3     2769     TIP3     H2       HT       0.417000       1.00800           0
     22108 TIP3     2770     TIP3     OH2      OT      -0.834000       15.9994           0
     22109 TIP3     2770     TIP3     H1       HT       0.417000       1.00800           0
     22110 TIP3     2770     TIP3     H2       HT       0.417000       1.00800           0
     22111 TIP3     2771     TIP3     OH2      OT      -0.834000       15.9994           0
     22112 TIP3     2771     TIP3     H1       HT       0.417000       1.00800           0
     22113 TIP3     2771     TIP3     H2       HT       0.417000       1.00800           0
     22114 TIP3     2772     TIP3     OH2      OT      -0.834000       15.9994           0
     22115 TIP3     2772     TIP3     H1       HT       0.417000       1.00800           0
     22116 TIP3     2772     TIP3     H2       HT       0.417000       1.00800           0
     22117 TIP3     2773     TIP3     OH2      OT      -0.834000       15.9994           0
     22118 TIP3     2773     TIP3     H1       HT       0.417000       1.00800           0
     22119 TIP3     2773     TIP3     H2       HT       0.417000       1.00800           0
     22120 TIP3     2774     TIP3     OH2      OT      -0.834000       15.9994           0
     22121 TIP3     2774     TIP3     H1       HT       0.417000       1.00800           0
     22122 TIP3     2774     TIP3     H2       HT       0.417000       1.00800           0
     22123 TIP3     2775     TIP3     OH2      OT      -0.834000       15.9994           0
     22124 TIP3     2775     TIP3     H1       HT       0.417000       1.00800           0
     22125 TIP3     2775     TIP3     H2       HT       0.417000       1.00800           0
     22126 TIP3     2776     TIP3     OH2      OT      -0.834000       15.9994           0
     22127 TIP3     2776     TIP3     H1       HT       0.417000       1.00800           0
     22128 TIP3     2776     TIP3     H2       HT       0.417000       1.00800           0
     22129 TIP3     2777     TIP3     OH2      OT      -0.834000       15.9994           0
     22130 TIP3     2777     TIP3     H1       HT       0.417000       1.00800           0
     22131 TIP3     2777     TIP3     H2       HT       0.417000       1.00800           0
     22132 TIP3     2778     TIP3     OH2      OT      -0.834000       15.9994           0
     22133 TIP3     2778     TIP3     H1       HT       0.417000       1.00800           0
     22134 TIP3     2778     TIP3     H2       HT       0.417000       1.00800           0
     22135 TIP3     2779     TIP3     OH2      OT      -0.834000       15.9994           0
     22136 TIP3     2779     TIP3     H1       HT       0.417000       1.00800           0
     22137 TIP3     2779     TIP3     H2       HT       0.417000       1.00800           0
     22138 TIP3     2780     TIP3     OH2      OT      -0.834000       15.9994           0
     22139 TIP3     2780     TIP3     H1       HT       0.417000       1.00800           0
     22140 TIP3     2780     TIP3     H2       HT       0.417000       1.00800           0
     22141 TIP3     2781     TIP3     OH2      OT      -0.834000       15.9994           0
     22142 TIP3     2781     TIP3     H1       HT       0.417000       1.00800           0
     22143 TIP3     2781     TIP3     H2       HT       0.417000       1.00800           0
     22144 TIP3     2782     TIP3     OH2      OT      -0.834000       15.9994           0
     22145 TIP3     2782     TIP3     H1       HT       0.417000       1.00800           0
     22146 TIP3     2782     TIP3     H2       HT       0.417000       1.00800           0
     22147 TIP3     2783     TIP3     OH2      OT      -0.834000       15.9994           0
     22148 TIP3     2783     TIP3     H1       HT       0.417000       1.00800           0
     22149 TIP3     2783     TIP3     H2       HT       0.417000       1.00800           0
     22150 TIP3     2784     TIP3     OH2      OT      -0.834000       15.9994           0
     22151 TIP3     2784     TIP3     H1       HT       0.417000       1.00800           0
     22152 TIP3     2784     TIP3     H2       HT       0.417000       1.00800           0
     22153 TIP3     2785     TIP3     OH2      OT      -0.834000       15.9994           0
     22154 TIP3     2785     TIP3     H1       HT       0.417000       1.00800           0
     22155 TIP3     2785     TIP3     H2       HT       0.417000       1.00800           0
     22156 TIP3     2786     TIP3     OH2      OT      -0.834000       15.9994           0
     22157 TIP3     2786     TIP3     H1       HT       0.417000       1.00800           0
     22158 TIP3     2786     TIP3     H2       HT       0.417000       1.00800           0
     22159 TIP3     2787     TIP3     OH2      OT      -0.834000       15.9994           0
     22160 TIP3     2787     TIP3     H1       HT       0.417000       1.00800           0
     22161 TIP3     2787     TIP3     H2       HT       0.417000       1.00800           0
     22162 TIP3     2788     TIP3     OH2      OT      -0.834000       15.9994           0
     22163 TIP3     2788     TIP3     H1       HT       0.417000       1.00800           0
     22164 TIP3     2788     TIP3     H2       HT       0.417000       1.00800           0
     22165 TIP3     2789     TIP3     OH2      OT      -0.834000       15.9994           0
     22166 TIP3     2789     TIP3     H1       HT       0.417000       1.00800           0
     22167 TIP3     2789     TIP3     H2       HT       0.417000       1.00800           0
     22168 TIP3     2790     TIP3     OH2      OT      -0.834000       15.9994           0
     22169 TIP3     2790     TIP3     H1       HT       0.417000       1.00800           0
     22170 TIP3     2790     TIP3     H2       HT       0.417000       1.00800           0
     22171 TIP3     2791     TIP3     OH2      OT      -0.834000       15.9994           0
     22172 TIP3     2791     TIP3     H1       HT       0.417000       1.00800           0
     22173 TIP3     2791     TIP3     H2       HT       0.417000       1.00800           0
     22174 TIP3     2792     TIP3     OH2      OT      -0.834000       15.9994           0
     22175 TIP3     2792     TIP3     H1       HT       0.417000       1.00800           0
     22176 TIP3     2792     TIP3     H2       HT       0.417000       1.00800           0
     22177 TIP3     2793     TIP3     OH2      OT      -0.834000       15.9994           0
     22178 TIP3     2793     TIP3     H1       HT       0.417000       1.00800           0
     22179 TIP3     2793     TIP3     H2       HT       0.417000       1.00800           0
     22180 TIP3     2794     TIP3     OH2      OT      -0.834000       15.9994           0
     22181 TIP3     2794     TIP3     H1       HT       0.417000       1.00800           0
     22182 TIP3     2794     TIP3     H2       HT       0.417000       1.00800           0
     22183 TIP3     2795     TIP3     OH2      OT      -0.834000       15.9994           0
     22184 TIP3     2795     TIP3     H1       HT       0.417000       1.00800           0
     22185 TIP3     2795     TIP3     H2       HT       0.417000       1.00800           0
     22186 TIP3     2796     TIP3     OH2      OT      -0.834000       15.9994           0
     22187 TIP3     2796     TIP3     H1       HT       0.417000       1.00800           0
     22188 TIP3     2796     TIP3     H2       HT       0.417000       1.00800           0
     22189 TIP3     2797     TIP3     OH2      OT      -0.834000       15.9994           0
     22190 TIP3     2797     TIP3     H1       HT       0.417000       1.00800           0
     22191 TIP3     2797     TIP3     H2       HT       0.417000       1.00800           0
     22192 TIP3     2798     TIP3     OH2      OT      -0.834000       15.9994           0
     22193 TIP3     2798     TIP3     H1       HT       0.417000       1.00800           0
     22194 TIP3     2798     TIP3     H2       HT       0.417000       1.00800           0
     22195 TIP3     2799     TIP3     OH2      OT      -0.834000       15.9994           0
     22196 TIP3     2799     TIP3     H1       HT       0.417000       1.00800           0
     22197 TIP3     2799     TIP3     H2       HT       0.417000       1.00800           0
     22198 TIP3     2800     TIP3     OH2      OT      -0.834000       15.9994           0
     22199 TIP3     2800     TIP3     H1       HT       0.417000       1.00800           0
     22200 TIP3     2800     TIP3     H2       HT       0.417000       1.00800           0
     22201 TIP3     2801     TIP3     OH2      OT      -0.834000       15.9994           0
     22202 TIP3     2801     TIP3     H1       HT       0.417000       1.00800           0
     22203 TIP3     2801     TIP3     H2       HT       0.417000       1.00800           0
     22204 TIP3     2802     TIP3     OH2      OT      -0.834000       15.9994           0
     22205 TIP3     2802     TIP3     H1       HT       0.417000       1.00800           0
     22206 TIP3     2802     TIP3     H2       HT       0.417000       1.00800           0
     22207 TIP3     2803     TIP3     OH2      OT      -0.834000       15.9994           0
     22208 TIP3     2803     TIP3     H1       HT       0.417000       1.00800           0
     22209 TIP3     2803     TIP3     H2       HT       0.417000       1.00800           0
     22210 TIP3     2804     TIP3     OH2      OT      -0.834000       15.9994           0
     22211 TIP3     2804     TIP3     H1       HT       0.417000       1.00800           0
     22212 TIP3     2804     TIP3     H2       HT       0.417000       1.00800           0
     22213 TIP3     2805     TIP3     OH2      OT      -0.834000       15.9994           0
     22214 TIP3     2805     TIP3     H1       HT       0.417000       1.00800           0
     22215 TIP3     2805     TIP3     H2       HT       0.417000       1.00800           0
     22216 TIP3     2806     TIP3     OH2      OT      -0.834000       15.9994           0
     22217 TIP3     2806     TIP3     H1       HT       0.417000       1.00800           0
     22218 TIP3     2806     TIP3     H2       HT       0.417000       1.00800           0
     22219 TIP3     2807     TIP3     OH2      OT      -0.834000       15.9994           0
     22220 TIP3     2807     TIP3     H1       HT       0.417000       1.00800           0
     22221 TIP3     2807     TIP3     H2       HT       0.417000       1.00800           0
     22222 TIP3     2808     TIP3     OH2      OT      -0.834000       15.9994           0
     22223 TIP3     2808     TIP3     H1       HT       0.417000       1.00800           0
     22224 TIP3     2808     TIP3     H2       HT       0.417000       1.00800           0
     22225 TIP3     2809     TIP3     OH2      OT      -0.834000       15.9994           0
     22226 TIP3     2809     TIP3     H1       HT       0.417000       1.00800           0
     22227 TIP3     2809     TIP3     H2       HT       0.417000       1.00800           0
     22228 TIP3     2810     TIP3     OH2      OT      -0.834000       15.9994           0
     22229 TIP3     2810     TIP3     H1       HT       0.417000       1.00800           0
     22230 TIP3     2810     TIP3     H2       HT       0.417000       1.00800           0
     22231 TIP3     2811     TIP3     OH2      OT      -0.834000       15.9994           0
     22232 TIP3     2811     TIP3     H1       HT       0.417000       1.00800           0
     22233 TIP3     2811     TIP3     H2       HT       0.417000       1.00800           0
     22234 TIP3     2812     TIP3     OH2      OT      -0.834000       15.9994           0
     22235 TIP3     2812     TIP3     H1       HT       0.417000       1.00800           0
     22236 TIP3     2812     TIP3     H2       HT       0.417000       1.00800           0
     22237 TIP3     2813     TIP3     OH2      OT      -0.834000       15.9994           0
     22238 TIP3     2813     TIP3     H1       HT       0.417000       1.00800           0
     22239 TIP3     2813     TIP3     H2       HT       0.417000       1.00800           0
     22240 TIP3     2814     TIP3     OH2      OT      -0.834000       15.9994           0
     22241 TIP3     2814     TIP3     H1       HT       0.417000       1.00800           0
     22242 TIP3     2814     TIP3     H2       HT       0.417000       1.00800           0
     22243 TIP3     2815     TIP3     OH2      OT      -0.834000       15.9994           0
     22244 TIP3     2815     TIP3     H1       HT       0.417000       1.00800           0
     22245 TIP3     2815     TIP3     H2       HT       0.417000       1.00800           0
     22246 TIP3     2816     TIP3     OH2      OT      -0.834000       15.9994           0
     22247 TIP3     2816     TIP3     H1       HT       0.417000       1.00800           0
     22248 TIP3     2816     TIP3     H2       HT       0.417000       1.00800           0
     22249 TIP3     2817     TIP3     OH2      OT      -0.834000       15.9994           0
     22250 TIP3     2817     TIP3     H1       HT       0.417000       1.00800           0
     22251 TIP3     2817     TIP3     H2       HT       0.417000       1.00800           0
     22252 TIP3     2818     TIP3     OH2      OT      -0.834000       15.9994           0
     22253 TIP3     2818     TIP3     H1       HT       0.417000       1.00800           0
     22254 TIP3     2818     TIP3     H2       HT       0.417000       1.00800           0
     22255 TIP3     2819     TIP3     OH2      OT      -0.834000       15.9994           0
     22256 TIP3     2819     TIP3     H1       HT       0.417000       1.00800           0
     22257 TIP3     2819     TIP3     H2       HT       0.417000       1.00800           0
     22258 TIP3     2820     TIP3     OH2      OT      -0.834000       15.9994           0
     22259 TIP3     2820     TIP3     H1       HT       0.417000       1.00800           0
     22260 TIP3     2820     TIP3     H2       HT       0.417000       1.00800           0
     22261 TIP3     2821     TIP3     OH2      OT      -0.834000       15.9994           0
     22262 TIP3     2821     TIP3     H1       HT       0.417000       1.00800           0
     22263 TIP3     2821     TIP3     H2       HT       0.417000       1.00800           0
     22264 TIP3     2822     TIP3     OH2      OT      -0.834000       15.9994           0
     22265 TIP3     2822     TIP3     H1       HT       0.417000       1.00800           0
     22266 TIP3     2822     TIP3     H2       HT       0.417000       1.00800           0
     22267 TIP3     2823     TIP3     OH2      OT      -0.834000       15.9994           0
     22268 TIP3     2823     TIP3     H1       HT       0.417000       1.00800           0
     22269 TIP3     2823     TIP3     H2       HT       0.417000       1.00800           0
     22270 TIP3     2824     TIP3     OH2      OT      -0.834000       15.9994           0
     22271 TIP3     2824     TIP3     H1       HT       0.417000       1.00800           0
     22272 TIP3     2824     TIP3     H2       HT       0.417000       1.00800           0
     22273 TIP3     2825     TIP3     OH2      OT      -0.834000       15.9994           0
     22274 TIP3     2825     TIP3     H1       HT       0.417000       1.00800           0
     22275 TIP3     2825     TIP3     H2       HT       0.417000       1.00800           0
     22276 TIP3     2826     TIP3     OH2      OT      -0.834000       15.9994           0
     22277 TIP3     2826     TIP3     H1       HT       0.417000       1.00800           0
     22278 TIP3     2826     TIP3     H2       HT       0.417000       1.00800           0
     22279 TIP3     2827     TIP3     OH2      OT      -0.834000       15.9994           0
     22280 TIP3     2827     TIP3     H1       HT       0.417000       1.00800           0
     22281 TIP3     2827     TIP3     H2       HT       0.417000       1.00800           0
     22282 TIP3     2828     TIP3     OH2      OT      -0.834000       15.9994           0
     22283 TIP3     2828     TIP3     H1       HT       0.417000       1.00800           0
     22284 TIP3     2828     TIP3     H2       HT       0.417000       1.00800           0
     22285 TIP3     2829     TIP3     OH2      OT      -0.834000       15.9994           0
     22286 TIP3     2829     TIP3     H1       HT       0.417000       1.00800           0
     22287 TIP3     2829     TIP3     H2       HT       0.417000       1.00800           0
     22288 TIP3     2830     TIP3     OH2      OT      -0.834000       15.9994           0
     22289 TIP3     2830     TIP3     H1       HT       0.417000       1.00800           0
     22290 TIP3     2830     TIP3     H2       HT       0.417000       1.00800           0
     22291 TIP3     2831     TIP3     OH2      OT      -0.834000       15.9994           0
     22292 TIP3     2831     TIP3     H1       HT       0.417000       1.00800           0
     22293 TIP3     2831     TIP3     H2       HT       0.417000       1.00800           0
     22294 TIP3     2832     TIP3     OH2      OT      -0.834000       15.9994           0
     22295 TIP3     2832     TIP3     H1       HT       0.417000       1.00800           0
     22296 TIP3     2832     TIP3     H2       HT       0.417000       1.00800           0
     22297 TIP3     2833     TIP3     OH2      OT      -0.834000       15.9994           0
     22298 TIP3     2833     TIP3     H1       HT       0.417000       1.00800           0
     22299 TIP3     2833     TIP3     H2       HT       0.417000       1.00800           0
     22300 TIP3     2834     TIP3     OH2      OT      -0.834000       15.9994           0
     22301 TIP3     2834     TIP3     H1       HT       0.417000       1.00800           0
     22302 TIP3     2834     TIP3     H2       HT       0.417000       1.00800           0
     22303 TIP3     2835     TIP3     OH2      OT      -0.834000       15.9994           0
     22304 TIP3     2835     TIP3     H1       HT       0.417000       1.00800           0
     22305 TIP3     2835     TIP3     H2       HT       0.417000       1.00800           0
     22306 TIP3     2836     TIP3     OH2      OT      -0.834000       15.9994           0
     22307 TIP3     2836     TIP3     H1       HT       0.417000       1.00800           0
     22308 TIP3     2836     TIP3     H2       HT       0.417000       1.00800           0
     22309 TIP3     2837     TIP3     OH2      OT      -0.834000       15.9994           0
     22310 TIP3     2837     TIP3     H1       HT       0.417000       1.00800           0
     22311 TIP3     2837     TIP3     H2       HT       0.417000       1.00800           0
     22312 TIP3     2838     TIP3     OH2      OT      -0.834000       15.9994           0
     22313 TIP3     2838     TIP3     H1       HT       0.417000       1.00800           0
     22314 TIP3     2838     TIP3     H2       HT       0.417000       1.00800           0
     22315 TIP3     2839     TIP3     OH2      OT      -0.834000       15.9994           0
     22316 TIP3     2839     TIP3     H1       HT       0.417000       1.00800           0
     22317 TIP3     2839     TIP3     H2       HT       0.417000       1.00800           0
     22318 TIP3     2840     TIP3     OH2      OT      -0.834000       15.9994           0
     22319 TIP3     2840     TIP3     H1       HT       0.417000       1.00800           0
     22320 TIP3     2840     TIP3     H2       HT       0.417000       1.00800           0
     22321 TIP3     2841     TIP3     OH2      OT      -0.834000       15.9994           0
     22322 TIP3     2841     TIP3     H1       HT       0.417000       1.00800           0
     22323 TIP3     2841     TIP3     H2       HT       0.417000       1.00800           0
     22324 TIP3     2842     TIP3     OH2      OT      -0.834000       15.9994           0
     22325 TIP3     2842     TIP3     H1       HT       0.417000       1.00800           0
     22326 TIP3     2842     TIP3     H2       HT       0.417000       1.00800           0
     22327 TIP3     2843     TIP3     OH2      OT      -0.834000       15.9994           0
     22328 TIP3     2843     TIP3     H1       HT       0.417000       1.00800           0
     22329 TIP3     2843     TIP3     H2       HT       0.417000       1.00800           0
     22330 TIP3     2844     TIP3     OH2      OT      -0.834000       15.9994           0
     22331 TIP3     2844     TIP3     H1       HT       0.417000       1.00800           0
     22332 TIP3     2844     TIP3     H2       HT       0.417000       1.00800           0
     22333 TIP3     2845     TIP3     OH2      OT      -0.834000       15.9994           0
     22334 TIP3     2845     TIP3     H1       HT       0.417000       1.00800           0
     22335 TIP3     2845     TIP3     H2       HT       0.417000       1.00800           0
     22336 TIP3     2846     TIP3     OH2      OT      -0.834000       15.9994           0
     22337 TIP3     2846     TIP3     H1       HT       0.417000       1.00800           0
     22338 TIP3     2846     TIP3     H2       HT       0.417000       1.00800           0
     22339 TIP3     2847     TIP3     OH2      OT      -0.834000       15.9994           0
     22340 TIP3     2847     TIP3     H1       HT       0.417000       1.00800           0
     22341 TIP3     2847     TIP3     H2       HT       0.417000       1.00800           0
     22342 TIP3     2848     TIP3     OH2      OT      -0.834000       15.9994           0
     22343 TIP3     2848     TIP3     H1       HT       0.417000       1.00800           0
     22344 TIP3     2848     TIP3     H2       HT       0.417000       1.00800           0
     22345 TIP3     2849     TIP3     OH2      OT      -0.834000       15.9994           0
     22346 TIP3     2849     TIP3     H1       HT       0.417000       1.00800           0
     22347 TIP3     2849     TIP3     H2       HT       0.417000       1.00800           0
     22348 TIP3     2850     TIP3     OH2      OT      -0.834000       15.9994           0
     22349 TIP3     2850     TIP3     H1       HT       0.417000       1.00800           0
     22350 TIP3     2850     TIP3     H2       HT       0.417000       1.00800           0
     22351 TIP3     2851     TIP3     OH2      OT      -0.834000       15.9994           0
     22352 TIP3     2851     TIP3     H1       HT       0.417000       1.00800           0
     22353 TIP3     2851     TIP3     H2       HT       0.417000       1.00800           0
     22354 TIP3     2852     TIP3     OH2      OT      -0.834000       15.9994           0
     22355 TIP3     2852     TIP3     H1       HT       0.417000       1.00800           0
     22356 TIP3     2852     TIP3     H2       HT       0.417000       1.00800           0
     22357 TIP3     2853     TIP3     OH2      OT      -0.834000       15.9994           0
     22358 TIP3     2853     TIP3     H1       HT       0.417000       1.00800           0
     22359 TIP3     2853     TIP3     H2       HT       0.417000       1.00800           0
     22360 TIP3     2854     TIP3     OH2      OT      -0.834000       15.9994           0
     22361 TIP3     2854     TIP3     H1       HT       0.417000       1.00800           0
     22362 TIP3     2854     TIP3     H2       HT       0.417000       1.00800           0
     22363 TIP3     2855     TIP3     OH2      OT      -0.834000       15.9994           0
     22364 TIP3     2855     TIP3     H1       HT       0.417000       1.00800           0
     22365 TIP3     2855     TIP3     H2       HT       0.417000       1.00800           0
     22366 TIP3     2856     TIP3     OH2      OT      -0.834000       15.9994           0
     22367 TIP3     2856     TIP3     H1       HT       0.417000       1.00800           0
     22368 TIP3     2856     TIP3     H2       HT       0.417000       1.00800           0
     22369 TIP3     2857     TIP3     OH2      OT      -0.834000       15.9994           0
     22370 TIP3     2857     TIP3     H1       HT       0.417000       1.00800           0
     22371 TIP3     2857     TIP3     H2       HT       0.417000       1.00800           0
     22372 TIP3     2858     TIP3     OH2      OT      -0.834000       15.9994           0
     22373 TIP3     2858     TIP3     H1       HT       0.417000       1.00800           0
     22374 TIP3     2858     TIP3     H2       HT       0.417000       1.00800           0
     22375 TIP3     2859     TIP3     OH2      OT      -0.834000       15.9994           0
     22376 TIP3     2859     TIP3     H1       HT       0.417000       1.00800           0
     22377 TIP3     2859     TIP3     H2       HT       0.417000       1.00800           0
     22378 TIP3     2860     TIP3     OH2      OT      -0.834000       15.9994           0
     22379 TIP3     2860     TIP3     H1       HT       0.417000       1.00800           0
     22380 TIP3     2860     TIP3     H2       HT       0.417000       1.00800           0
     22381 TIP3     2861     TIP3     OH2      OT      -0.834000       15.9994           0
     22382 TIP3     2861     TIP3     H1       HT       0.417000       1.00800           0
     22383 TIP3     2861     TIP3     H2       HT       0.417000       1.00800           0
     22384 TIP3     2862     TIP3     OH2      OT      -0.834000       15.9994           0
     22385 TIP3     2862     TIP3     H1       HT       0.417000       1.00800           0
     22386 TIP3     2862     TIP3     H2       HT       0.417000       1.00800           0
     22387 TIP3     2863     TIP3     OH2      OT      -0.834000       15.9994           0
     22388 TIP3     2863     TIP3     H1       HT       0.417000       1.00800           0
     22389 TIP3     2863     TIP3     H2       HT       0.417000       1.00800           0
     22390 TIP3     2864     TIP3     OH2      OT      -0.834000       15.9994           0
     22391 TIP3     2864     TIP3     H1       HT       0.417000       1.00800           0
     22392 TIP3     2864     TIP3     H2       HT       0.417000       1.00800           0
     22393 TIP3     2865     TIP3     OH2      OT      -0.834000       15.9994           0
     22394 TIP3     2865     TIP3     H1       HT       0.417000       1.00800           0
     22395 TIP3     2865     TIP3     H2       HT       0.417000       1.00800           0
     22396 TIP3     2866     TIP3     OH2      OT      -0.834000       15.9994           0
     22397 TIP3     2866     TIP3     H1       HT       0.417000       1.00800           0
     22398 TIP3     2866     TIP3     H2       HT       0.417000       1.00800           0
     22399 TIP3     2867     TIP3     OH2      OT      -0.834000       15.9994           0
     22400 TIP3     2867     TIP3     H1       HT       0.417000       1.00800           0
     22401 TIP3     2867     TIP3     H2       HT       0.417000       1.00800           0
     22402 TIP3     2868     TIP3     OH2      OT      -0.834000       15.9994           0
     22403 TIP3     2868     TIP3     H1       HT       0.417000       1.00800           0
     22404 TIP3     2868     TIP3     H2       HT       0.417000       1.00800           0
     22405 TIP3     2869     TIP3     OH2      OT      -0.834000       15.9994           0
     22406 TIP3     2869     TIP3     H1       HT       0.417000       1.00800           0
     22407 TIP3     2869     TIP3     H2       HT       0.417000       1.00800           0
     22408 TIP3     2870     TIP3     OH2      OT      -0.834000       15.9994           0
     22409 TIP3     2870     TIP3     H1       HT       0.417000       1.00800           0
     22410 TIP3     2870     TIP3     H2       HT       0.417000       1.00800           0
     22411 TIP3     2871     TIP3     OH2      OT      -0.834000       15.9994           0
     22412 TIP3     2871     TIP3     H1       HT       0.417000       1.00800           0
     22413 TIP3     2871     TIP3     H2       HT       0.417000       1.00800           0
     22414 TIP3     2872     TIP3     OH2      OT      -0.834000       15.9994           0
     22415 TIP3     2872     TIP3     H1       HT       0.417000       1.00800           0
     22416 TIP3     2872     TIP3     H2       HT       0.417000       1.00800           0
     22417 TIP3     2873     TIP3     OH2      OT      -0.834000       15.9994           0
     22418 TIP3     2873     TIP3     H1       HT       0.417000       1.00800           0
     22419 TIP3     2873     TIP3     H2       HT       0.417000       1.00800           0
     22420 TIP3     2874     TIP3     OH2      OT      -0.834000       15.9994           0
     22421 TIP3     2874     TIP3     H1       HT       0.417000       1.00800           0
     22422 TIP3     2874     TIP3     H2       HT       0.417000       1.00800           0
     22423 TIP3     2875     TIP3     OH2      OT      -0.834000       15.9994           0
     22424 TIP3     2875     TIP3     H1       HT       0.417000       1.00800           0
     22425 TIP3     2875     TIP3     H2       HT       0.417000       1.00800           0
     22426 TIP3     2876     TIP3     OH2      OT      -0.834000       15.9994           0
     22427 TIP3     2876     TIP3     H1       HT       0.417000       1.00800           0
     22428 TIP3     2876     TIP3     H2       HT       0.417000       1.00800           0
     22429 TIP3     2877     TIP3     OH2      OT      -0.834000       15.9994           0
     22430 TIP3     2877     TIP3     H1       HT       0.417000       1.00800           0
     22431 TIP3     2877     TIP3     H2       HT       0.417000       1.00800           0
     22432 TIP3     2878     TIP3     OH2      OT      -0.834000       15.9994           0
     22433 TIP3     2878     TIP3     H1       HT       0.417000       1.00800           0
     22434 TIP3     2878     TIP3     H2       HT       0.417000       1.00800           0
     22435 TIP3     2879     TIP3     OH2      OT      -0.834000       15.9994           0
     22436 TIP3     2879     TIP3     H1       HT       0.417000       1.00800           0
     22437 TIP3     2879     TIP3     H2       HT       0.417000       1.00800           0
     22438 TIP3     2880     TIP3     OH2      OT      -0.834000       15.9994           0
     22439 TIP3     2880     TIP3     H1       HT       0.417000       1.00800           0
     22440 TIP3     2880     TIP3     H2       HT       0.417000       1.00800           0
     22441 TIP3     2881     TIP3     OH2      OT      -0.834000       15.9994           0
     22442 TIP3     2881     TIP3     H1       HT       0.417000       1.00800           0
     22443 TIP3     2881     TIP3     H2       HT       0.417000       1.00800           0
     22444 TIP3     2882     TIP3     OH2      OT      -0.834000       15.9994           0
     22445 TIP3     2882     TIP3     H1       HT       0.417000       1.00800           0
     22446 TIP3     2882     TIP3     H2       HT       0.417000       1.00800           0
     22447 TIP3     2883     TIP3     OH2      OT      -0.834000       15.9994           0
     22448 TIP3     2883     TIP3     H1       HT       0.417000       1.00800           0
     22449 TIP3     2883     TIP3     H2       HT       0.417000       1.00800           0
     22450 TIP3     2884     TIP3     OH2      OT      -0.834000       15.9994           0
     22451 TIP3     2884     TIP3     H1       HT       0.417000       1.00800           0
     22452 TIP3     2884     TIP3     H2       HT       0.417000       1.00800           0
     22453 TIP3     2885     TIP3     OH2      OT      -0.834000       15.9994           0
     22454 TIP3     2885     TIP3     H1       HT       0.417000       1.00800           0
     22455 TIP3     2885     TIP3     H2       HT       0.417000       1.00800           0
     22456 TIP3     2886     TIP3     OH2      OT      -0.834000       15.9994           0
     22457 TIP3     2886     TIP3     H1       HT       0.417000       1.00800           0
     22458 TIP3     2886     TIP3     H2       HT       0.417000       1.00800           0
     22459 TIP3     2887     TIP3     OH2      OT      -0.834000       15.9994           0
     22460 TIP3     2887     TIP3     H1       HT       0.417000       1.00800           0
     22461 TIP3     2887     TIP3     H2       HT       0.417000       1.00800           0
     22462 TIP3     2888     TIP3     OH2      OT      -0.834000       15.9994           0
     22463 TIP3     2888     TIP3     H1       HT       0.417000       1.00800           0
     22464 TIP3     2888     TIP3     H2       HT       0.417000       1.00800           0
     22465 TIP3     2889     TIP3     OH2      OT      -0.834000       15.9994           0
     22466 TIP3     2889     TIP3     H1       HT       0.417000       1.00800           0
     22467 TIP3     2889     TIP3     H2       HT       0.417000       1.00800           0
     22468 TIP3     2890     TIP3     OH2      OT      -0.834000       15.9994           0
     22469 TIP3     2890     TIP3     H1       HT       0.417000       1.00800           0
     22470 TIP3     2890     TIP3     H2       HT       0.417000       1.00800           0
     22471 TIP3     2891     TIP3     OH2      OT      -0.834000       15.9994           0
     22472 TIP3     2891     TIP3     H1       HT       0.417000       1.00800           0
     22473 TIP3     2891     TIP3     H2       HT       0.417000       1.00800           0
     22474 TIP3     2892     TIP3     OH2      OT      -0.834000       15.9994           0
     22475 TIP3     2892     TIP3     H1       HT       0.417000       1.00800           0
     22476 TIP3     2892     TIP3     H2       HT       0.417000       1.00800           0
     22477 TIP3     2893     TIP3     OH2      OT      -0.834000       15.9994           0
     22478 TIP3     2893     TIP3     H1       HT       0.417000       1.00800           0
     22479 TIP3     2893     TIP3     H2       HT       0.417000       1.00800           0
     22480 TIP3     2894     TIP3     OH2      OT      -0.834000       15.9994           0
     22481 TIP3     2894     TIP3     H1       HT       0.417000       1.00800           0
     22482 TIP3     2894     TIP3     H2       HT       0.417000       1.00800           0
     22483 TIP3     2895     TIP3     OH2      OT      -0.834000       15.9994           0
     22484 TIP3     2895     TIP3     H1       HT       0.417000       1.00800           0
     22485 TIP3     2895     TIP3     H2       HT       0.417000       1.00800           0
     22486 TIP3     2896     TIP3     OH2      OT      -0.834000       15.9994           0
     22487 TIP3     2896     TIP3     H1       HT       0.417000       1.00800           0
     22488 TIP3     2896     TIP3     H2       HT       0.417000       1.00800           0
     22489 TIP3     2897     TIP3     OH2      OT      -0.834000       15.9994           0
     22490 TIP3     2897     TIP3     H1       HT       0.417000       1.00800           0
     22491 TIP3     2897     TIP3     H2       HT       0.417000       1.00800           0
     22492 TIP3     2898     TIP3     OH2      OT      -0.834000       15.9994           0
     22493 TIP3     2898     TIP3     H1       HT       0.417000       1.00800           0
     22494 TIP3     2898     TIP3     H2       HT       0.417000       1.00800           0
     22495 TIP3     2899     TIP3     OH2      OT      -0.834000       15.9994           0
     22496 TIP3     2899     TIP3     H1       HT       0.417000       1.00800           0
     22497 TIP3     2899     TIP3     H2       HT       0.417000       1.00800           0
     22498 TIP3     2900     TIP3     OH2      OT      -0.834000       15.9994           0
     22499 TIP3     2900     TIP3     H1       HT       0.417000       1.00800           0
     22500 TIP3     2900     TIP3     H2       HT       0.417000       1.00800           0
     22501 TIP3     2901     TIP3     OH2      OT      -0.834000       15.9994           0
     22502 TIP3     2901     TIP3     H1       HT       0.417000       1.00800           0
     22503 TIP3     2901     TIP3     H2       HT       0.417000       1.00800           0
     22504 TIP3     2902     TIP3     OH2      OT      -0.834000       15.9994           0
     22505 TIP3     2902     TIP3     H1       HT       0.417000       1.00800           0
     22506 TIP3     2902     TIP3     H2       HT       0.417000       1.00800           0
     22507 TIP3     2903     TIP3     OH2      OT      -0.834000       15.9994           0
     22508 TIP3     2903     TIP3     H1       HT       0.417000       1.00800           0
     22509 TIP3     2903     TIP3     H2       HT       0.417000       1.00800           0
     22510 TIP3     2904     TIP3     OH2      OT      -0.834000       15.9994           0
     22511 TIP3     2904     TIP3     H1       HT       0.417000       1.00800           0
     22512 TIP3     2904     TIP3     H2       HT       0.417000       1.00800           0
     22513 TIP3     2905     TIP3     OH2      OT      -0.834000       15.9994           0
     22514 TIP3     2905     TIP3     H1       HT       0.417000       1.00800           0
     22515 TIP3     2905     TIP3     H2       HT       0.417000       1.00800           0
     22516 TIP3     2906     TIP3     OH2      OT      -0.834000       15.9994           0
     22517 TIP3     2906     TIP3     H1       HT       0.417000       1.00800           0
     22518 TIP3     2906     TIP3     H2       HT       0.417000       1.00800           0
     22519 TIP3     2907     TIP3     OH2      OT      -0.834000       15.9994           0
     22520 TIP3     2907     TIP3     H1       HT       0.417000       1.00800           0
     22521 TIP3     2907     TIP3     H2       HT       0.417000       1.00800           0
     22522 TIP3     2908     TIP3     OH2      OT      -0.834000       15.9994           0
     22523 TIP3     2908     TIP3     H1       HT       0.417000       1.00800           0
     22524 TIP3     2908     TIP3     H2       HT       0.417000       1.00800           0
     22525 TIP3     2909     TIP3     OH2      OT      -0.834000       15.9994           0
     22526 TIP3     2909     TIP3     H1       HT       0.417000       1.00800           0
     22527 TIP3     2909     TIP3     H2       HT       0.417000       1.00800           0
     22528 TIP3     2910     TIP3     OH2      OT      -0.834000       15.9994           0
     22529 TIP3     2910     TIP3     H1       HT       0.417000       1.00800           0
     22530 TIP3     2910     TIP3     H2       HT       0.417000       1.00800           0
     22531 TIP3     2911     TIP3     OH2      OT      -0.834000       15.9994           0
     22532 TIP3     2911     TIP3     H1       HT       0.417000       1.00800           0
     22533 TIP3     2911     TIP3     H2       HT       0.417000       1.00800           0
     22534 TIP3     2912     TIP3     OH2      OT      -0.834000       15.9994           0
     22535 TIP3     2912     TIP3     H1       HT       0.417000       1.00800           0
     22536 TIP3     2912     TIP3     H2       HT       0.417000       1.00800           0
     22537 TIP3     2913     TIP3     OH2      OT      -0.834000       15.9994           0
     22538 TIP3     2913     TIP3     H1       HT       0.417000       1.00800           0
     22539 TIP3     2913     TIP3     H2       HT       0.417000       1.00800           0
     22540 TIP3     2914     TIP3     OH2      OT      -0.834000       15.9994           0
     22541 TIP3     2914     TIP3     H1       HT       0.417000       1.00800           0
     22542 TIP3     2914     TIP3     H2       HT       0.417000       1.00800           0
     22543 TIP3     2915     TIP3     OH2      OT      -0.834000       15.9994           0
     22544 TIP3     2915     TIP3     H1       HT       0.417000       1.00800           0
     22545 TIP3     2915     TIP3     H2       HT       0.417000       1.00800           0
     22546 TIP3     2916     TIP3     OH2      OT      -0.834000       15.9994           0
     22547 TIP3     2916     TIP3     H1       HT       0.417000       1.00800           0
     22548 TIP3     2916     TIP3     H2       HT       0.417000       1.00800           0
     22549 TIP3     2917     TIP3     OH2      OT      -0.834000       15.9994           0
     22550 TIP3     2917     TIP3     H1       HT       0.417000       1.00800           0
     22551 TIP3     2917     TIP3     H2       HT       0.417000       1.00800           0
     22552 TIP3     2918     TIP3     OH2      OT      -0.834000       15.9994           0
     22553 TIP3     2918     TIP3     H1       HT       0.417000       1.00800           0
     22554 TIP3     2918     TIP3     H2       HT       0.417000       1.00800           0
     22555 TIP3     2919     TIP3     OH2      OT      -0.834000       15.9994           0
     22556 TIP3     2919     TIP3     H1       HT       0.417000       1.00800           0
     22557 TIP3     2919     TIP3     H2       HT       0.417000       1.00800           0
     22558 TIP3     2920     TIP3     OH2      OT      -0.834000       15.9994           0
     22559 TIP3     2920     TIP3     H1       HT       0.417000       1.00800           0
     22560 TIP3     2920     TIP3     H2       HT       0.417000       1.00800           0
     22561 TIP3     2921     TIP3     OH2      OT      -0.834000       15.9994           0
     22562 TIP3     2921     TIP3     H1       HT       0.417000       1.00800           0
     22563 TIP3     2921     TIP3     H2       HT       0.417000       1.00800           0
     22564 TIP3     2922     TIP3     OH2      OT      -0.834000       15.9994           0
     22565 TIP3     2922     TIP3     H1       HT       0.417000       1.00800           0
     22566 TIP3     2922     TIP3     H2       HT       0.417000       1.00800           0
     22567 TIP3     2923     TIP3     OH2      OT      -0.834000       15.9994           0
     22568 TIP3     2923     TIP3     H1       HT       0.417000       1.00800           0
     22569 TIP3     2923     TIP3     H2       HT       0.417000       1.00800           0
     22570 TIP3     2924     TIP3     OH2      OT      -0.834000       15.9994           0
     22571 TIP3     2924     TIP3     H1       HT       0.417000       1.00800           0
     22572 TIP3     2924     TIP3     H2       HT       0.417000       1.00800           0
     22573 TIP3     2925     TIP3     OH2      OT      -0.834000       15.9994           0
     22574 TIP3     2925     TIP3     H1       HT       0.417000       1.00800           0
     22575 TIP3     2925     TIP3     H2       HT       0.417000       1.00800           0
     22576 TIP3     2926     TIP3     OH2      OT      -0.834000       15.9994           0
     22577 TIP3     2926     TIP3     H1       HT       0.417000       1.00800           0
     22578 TIP3     2926     TIP3     H2       HT       0.417000       1.00800           0
     22579 TIP3     2927     TIP3     OH2      OT      -0.834000       15.9994           0
     22580 TIP3     2927     TIP3     H1       HT       0.417000       1.00800           0
     22581 TIP3     2927     TIP3     H2       HT       0.417000       1.00800           0
     22582 TIP3     2928     TIP3     OH2      OT      -0.834000       15.9994           0
     22583 TIP3     2928     TIP3     H1       HT       0.417000       1.00800           0
     22584 TIP3     2928     TIP3     H2       HT       0.417000       1.00800           0
     22585 TIP3     2929     TIP3     OH2      OT      -0.834000       15.9994           0
     22586 TIP3     2929     TIP3     H1       HT       0.417000       1.00800           0
     22587 TIP3     2929     TIP3     H2       HT       0.417000       1.00800           0
     22588 TIP3     2930     TIP3     OH2      OT      -0.834000       15.9994           0
     22589 TIP3     2930     TIP3     H1       HT       0.417000       1.00800           0
     22590 TIP3     2930     TIP3     H2       HT       0.417000       1.00800           0
     22591 TIP3     2931     TIP3     OH2      OT      -0.834000       15.9994           0
     22592 TIP3     2931     TIP3     H1       HT       0.417000       1.00800           0
     22593 TIP3     2931     TIP3     H2       HT       0.417000       1.00800           0
     22594 TIP3     2932     TIP3     OH2      OT      -0.834000       15.9994           0
     22595 TIP3     2932     TIP3     H1       HT       0.417000       1.00800           0
     22596 TIP3     2932     TIP3     H2       HT       0.417000       1.00800           0
     22597 TIP3     2933     TIP3     OH2      OT      -0.834000       15.9994           0
     22598 TIP3     2933     TIP3     H1       HT       0.417000       1.00800           0
     22599 TIP3     2933     TIP3     H2       HT       0.417000       1.00800           0
     22600 TIP3     2934     TIP3     OH2      OT      -0.834000       15.9994           0
     22601 TIP3     2934     TIP3     H1       HT       0.417000       1.00800           0
     22602 TIP3     2934     TIP3     H2       HT       0.417000       1.00800           0
     22603 TIP3     2935     TIP3     OH2      OT      -0.834000       15.9994           0
     22604 TIP3     2935     TIP3     H1       HT       0.417000       1.00800           0
     22605 TIP3     2935     TIP3     H2       HT       0.417000       1.00800           0
     22606 TIP3     2936     TIP3     OH2      OT      -0.834000       15.9994           0
     22607 TIP3     2936     TIP3     H1       HT       0.417000       1.00800           0
     22608 TIP3     2936     TIP3     H2       HT       0.417000       1.00800           0
     22609 TIP3     2937     TIP3     OH2      OT      -0.834000       15.9994           0
     22610 TIP3     2937     TIP3     H1       HT       0.417000       1.00800           0
     22611 TIP3     2937     TIP3     H2       HT       0.417000       1.00800           0
     22612 TIP3     2938     TIP3     OH2      OT      -0.834000       15.9994           0
     22613 TIP3     2938     TIP3     H1       HT       0.417000       1.00800           0
     22614 TIP3     2938     TIP3     H2       HT       0.417000       1.00800           0
     22615 TIP3     2939     TIP3     OH2      OT      -0.834000       15.9994           0
     22616 TIP3     2939     TIP3     H1       HT       0.417000       1.00800           0
     22617 TIP3     2939     TIP3     H2       HT       0.417000       1.00800           0
     22618 TIP3     2940     TIP3     OH2      OT      -0.834000       15.9994           0
     22619 TIP3     2940     TIP3     H1       HT       0.417000       1.00800           0
     22620 TIP3     2940     TIP3     H2       HT       0.417000       1.00800           0
     22621 TIP3     2941     TIP3     OH2      OT      -0.834000       15.9994           0
     22622 TIP3     2941     TIP3     H1       HT       0.417000       1.00800           0
     22623 TIP3     2941     TIP3     H2       HT       0.417000       1.00800           0
     22624 TIP3     2942     TIP3     OH2      OT      -0.834000       15.9994           0
     22625 TIP3     2942     TIP3     H1       HT       0.417000       1.00800           0
     22626 TIP3     2942     TIP3     H2       HT       0.417000       1.00800           0
     22627 TIP3     2943     TIP3     OH2      OT      -0.834000       15.9994           0
     22628 TIP3     2943     TIP3     H1       HT       0.417000       1.00800           0
     22629 TIP3     2943     TIP3     H2       HT       0.417000       1.00800           0
     22630 TIP3     2944     TIP3     OH2      OT      -0.834000       15.9994           0
     22631 TIP3     2944     TIP3     H1       HT       0.417000       1.00800           0
     22632 TIP3     2944     TIP3     H2       HT       0.417000       1.00800           0
     22633 TIP3     2945     TIP3     OH2      OT      -0.834000       15.9994           0
     22634 TIP3     2945     TIP3     H1       HT       0.417000       1.00800           0
     22635 TIP3     2945     TIP3     H2       HT       0.417000       1.00800           0
     22636 TIP3     2946     TIP3     OH2      OT      -0.834000       15.9994           0
     22637 TIP3     2946     TIP3     H1       HT       0.417000       1.00800           0
     22638 TIP3     2946     TIP3     H2       HT       0.417000       1.00800           0
     22639 TIP3     2947     TIP3     OH2      OT      -0.834000       15.9994           0
     22640 TIP3     2947     TIP3     H1       HT       0.417000       1.00800           0
     22641 TIP3     2947     TIP3     H2       HT       0.417000       1.00800           0
     22642 TIP3     2948     TIP3     OH2      OT      -0.834000       15.9994           0
     22643 TIP3     2948     TIP3     H1       HT       0.417000       1.00800           0
     22644 TIP3     2948     TIP3     H2       HT       0.417000       1.00800           0
     22645 TIP3     2949     TIP3     OH2      OT      -0.834000       15.9994           0
     22646 TIP3     2949     TIP3     H1       HT       0.417000       1.00800           0
     22647 TIP3     2949     TIP3     H2       HT       0.417000       1.00800           0
     22648 TIP3     2950     TIP3     OH2      OT      -0.834000       15.9994           0
     22649 TIP3     2950     TIP3     H1       HT       0.417000       1.00800           0
     22650 TIP3     2950     TIP3     H2       HT       0.417000       1.00800           0
     22651 TIP3     2951     TIP3     OH2      OT      -0.834000       15.9994           0
     22652 TIP3     2951     TIP3     H1       HT       0.417000       1.00800           0
     22653 TIP3     2951     TIP3     H2       HT       0.417000       1.00800           0
     22654 TIP3     2952     TIP3     OH2      OT      -0.834000       15.9994           0
     22655 TIP3     2952     TIP3     H1       HT       0.417000       1.00800           0
     22656 TIP3     2952     TIP3     H2       HT       0.417000       1.00800           0
     22657 TIP3     2953     TIP3     OH2      OT      -0.834000       15.9994           0
     22658 TIP3     2953     TIP3     H1       HT       0.417000       1.00800           0
     22659 TIP3     2953     TIP3     H2       HT       0.417000       1.00800           0
     22660 TIP3     2954     TIP3     OH2      OT      -0.834000       15.9994           0
     22661 TIP3     2954     TIP3     H1       HT       0.417000       1.00800           0
     22662 TIP3     2954     TIP3     H2       HT       0.417000       1.00800           0
     22663 TIP3     2955     TIP3     OH2      OT      -0.834000       15.9994           0
     22664 TIP3     2955     TIP3     H1       HT       0.417000       1.00800           0
     22665 TIP3     2955     TIP3     H2       HT       0.417000       1.00800           0
     22666 TIP3     2956     TIP3     OH2      OT      -0.834000       15.9994           0
     22667 TIP3     2956     TIP3     H1       HT       0.417000       1.00800           0
     22668 TIP3     2956     TIP3     H2       HT       0.417000       1.00800           0
     22669 TIP3     2957     TIP3     OH2      OT      -0.834000       15.9994           0
     22670 TIP3     2957     TIP3     H1       HT       0.417000       1.00800           0
     22671 TIP3     2957     TIP3     H2       HT       0.417000       1.00800           0
     22672 TIP3     2958     TIP3     OH2      OT      -0.834000       15.9994           0
     22673 TIP3     2958     TIP3     H1       HT       0.417000       1.00800           0
     22674 TIP3     2958     TIP3     H2       HT       0.417000       1.00800           0
     22675 TIP3     2959     TIP3     OH2      OT      -0.834000       15.9994           0
     22676 TIP3     2959     TIP3     H1       HT       0.417000       1.00800           0
     22677 TIP3     2959     TIP3     H2       HT       0.417000       1.00800           0
     22678 TIP3     2960     TIP3     OH2      OT      -0.834000       15.9994           0
     22679 TIP3     2960     TIP3     H1       HT       0.417000       1.00800           0
     22680 TIP3     2960     TIP3     H2       HT       0.417000       1.00800           0
     22681 TIP3     2961     TIP3     OH2      OT      -0.834000       15.9994           0
     22682 TIP3     2961     TIP3     H1       HT       0.417000       1.00800           0
     22683 TIP3     2961     TIP3     H2       HT       0.417000       1.00800           0
     22684 TIP3     2962     TIP3     OH2      OT      -0.834000       15.9994           0
     22685 TIP3     2962     TIP3     H1       HT       0.417000       1.00800           0
     22686 TIP3     2962     TIP3     H2       HT       0.417000       1.00800           0
     22687 TIP3     2963     TIP3     OH2      OT      -0.834000       15.9994           0
     22688 TIP3     2963     TIP3     H1       HT       0.417000       1.00800           0
     22689 TIP3     2963     TIP3     H2       HT       0.417000       1.00800           0
     22690 TIP3     2964     TIP3     OH2      OT      -0.834000       15.9994           0
     22691 TIP3     2964     TIP3     H1       HT       0.417000       1.00800           0
     22692 TIP3     2964     TIP3     H2       HT       0.417000       1.00800           0
     22693 TIP3     2965     TIP3     OH2      OT      -0.834000       15.9994           0
     22694 TIP3     2965     TIP3     H1       HT       0.417000       1.00800           0
     22695 TIP3     2965     TIP3     H2       HT       0.417000       1.00800           0
     22696 TIP3     2966     TIP3     OH2      OT      -0.834000       15.9994           0
     22697 TIP3     2966     TIP3     H1       HT       0.417000       1.00800           0
     22698 TIP3     2966     TIP3     H2       HT       0.417000       1.00800           0
     22699 TIP3     2967     TIP3     OH2      OT      -0.834000       15.9994           0
     22700 TIP3     2967     TIP3     H1       HT       0.417000       1.00800           0
     22701 TIP3     2967     TIP3     H2       HT       0.417000       1.00800           0
     22702 TIP3     2968     TIP3     OH2      OT      -0.834000       15.9994           0
     22703 TIP3     2968     TIP3     H1       HT       0.417000       1.00800           0
     22704 TIP3     2968     TIP3     H2       HT       0.417000       1.00800           0
     22705 TIP3     2969     TIP3     OH2      OT      -0.834000       15.9994           0
     22706 TIP3     2969     TIP3     H1       HT       0.417000       1.00800           0
     22707 TIP3     2969     TIP3     H2       HT       0.417000       1.00800           0
     22708 TIP3     2970     TIP3     OH2      OT      -0.834000       15.9994           0
     22709 TIP3     2970     TIP3     H1       HT       0.417000       1.00800           0
     22710 TIP3     2970     TIP3     H2       HT       0.417000       1.00800           0
     22711 TIP3     2971     TIP3     OH2      OT      -0.834000       15.9994           0
     22712 TIP3     2971     TIP3     H1       HT       0.417000       1.00800           0
     22713 TIP3     2971     TIP3     H2       HT       0.417000       1.00800           0
     22714 TIP3     2972     TIP3     OH2      OT      -0.834000       15.9994           0
     22715 TIP3     2972     TIP3     H1       HT       0.417000       1.00800           0
     22716 TIP3     2972     TIP3     H2       HT       0.417000       1.00800           0
     22717 TIP3     2973     TIP3     OH2      OT      -0.834000       15.9994           0
     22718 TIP3     2973     TIP3     H1       HT       0.417000       1.00800           0
     22719 TIP3     2973     TIP3     H2       HT       0.417000       1.00800           0
     22720 TIP3     2974     TIP3     OH2      OT      -0.834000       15.9994           0
     22721 TIP3     2974     TIP3     H1       HT       0.417000       1.00800           0
     22722 TIP3     2974     TIP3     H2       HT       0.417000       1.00800           0
     22723 TIP3     2975     TIP3     OH2      OT      -0.834000       15.9994           0
     22724 TIP3     2975     TIP3     H1       HT       0.417000       1.00800           0
     22725 TIP3     2975     TIP3     H2       HT       0.417000       1.00800           0
     22726 TIP3     2976     TIP3     OH2      OT      -0.834000       15.9994           0
     22727 TIP3     2976     TIP3     H1       HT       0.417000       1.00800           0
     22728 TIP3     2976     TIP3     H2       HT       0.417000       1.00800           0
     22729 TIP3     2977     TIP3     OH2      OT      -0.834000       15.9994           0
     22730 TIP3     2977     TIP3     H1       HT       0.417000       1.00800           0
     22731 TIP3     2977     TIP3     H2       HT       0.417000       1.00800           0
     22732 TIP3     2978     TIP3     OH2      OT      -0.834000       15.9994           0
     22733 TIP3     2978     TIP3     H1       HT       0.417000       1.00800           0
     22734 TIP3     2978     TIP3     H2       HT       0.417000       1.00800           0
     22735 TIP3     2979     TIP3     OH2      OT      -0.834000       15.9994           0
     22736 TIP3     2979     TIP3     H1       HT       0.417000       1.00800           0
     22737 TIP3     2979     TIP3     H2       HT       0.417000       1.00800           0
     22738 TIP3     2980     TIP3     OH2      OT      -0.834000       15.9994           0
     22739 TIP3     2980     TIP3     H1       HT       0.417000       1.00800           0
     22740 TIP3     2980     TIP3     H2       HT       0.417000       1.00800           0
     22741 TIP3     2981     TIP3     OH2      OT      -0.834000       15.9994           0
     22742 TIP3     2981     TIP3     H1       HT       0.417000       1.00800           0
     22743 TIP3     2981     TIP3     H2       HT       0.417000       1.00800           0
     22744 TIP3     2982     TIP3     OH2      OT      -0.834000       15.9994           0
     22745 TIP3     2982     TIP3     H1       HT       0.417000       1.00800           0
     22746 TIP3     2982     TIP3     H2       HT       0.417000       1.00800           0
     22747 TIP3     2983     TIP3     OH2      OT      -0.834000       15.9994           0
     22748 TIP3     2983     TIP3     H1       HT       0.417000       1.00800           0
     22749 TIP3     2983     TIP3     H2       HT       0.417000       1.00800           0
     22750 TIP3     2984     TIP3     OH2      OT      -0.834000       15.9994           0
     22751 TIP3     2984     TIP3     H1       HT       0.417000       1.00800           0
     22752 TIP3     2984     TIP3     H2       HT       0.417000       1.00800           0
     22753 TIP3     2985     TIP3     OH2      OT      -0.834000       15.9994           0
     22754 TIP3     2985     TIP3     H1       HT       0.417000       1.00800           0
     22755 TIP3     2985     TIP3     H2       HT       0.417000       1.00800           0
     22756 TIP3     2986     TIP3     OH2      OT      -0.834000       15.9994           0
     22757 TIP3     2986     TIP3     H1       HT       0.417000       1.00800           0
     22758 TIP3     2986     TIP3     H2       HT       0.417000       1.00800           0
     22759 TIP3     2987     TIP3     OH2      OT      -0.834000       15.9994           0
     22760 TIP3     2987     TIP3     H1       HT       0.417000       1.00800           0
     22761 TIP3     2987     TIP3     H2       HT       0.417000       1.00800           0
     22762 TIP3     2988     TIP3     OH2      OT      -0.834000       15.9994           0
     22763 TIP3     2988     TIP3     H1       HT       0.417000       1.00800           0
     22764 TIP3     2988     TIP3     H2       HT       0.417000       1.00800           0
     22765 TIP3     2989     TIP3     OH2      OT      -0.834000       15.9994           0
     22766 TIP3     2989     TIP3     H1       HT       0.417000       1.00800           0
     22767 TIP3     2989     TIP3     H2       HT       0.417000       1.00800           0
     22768 TIP3     2990     TIP3     OH2      OT      -0.834000       15.9994           0
     22769 TIP3     2990     TIP3     H1       HT       0.417000       1.00800           0
     22770 TIP3     2990     TIP3     H2       HT       0.417000       1.00800           0
     22771 TIP3     2991     TIP3     OH2      OT      -0.834000       15.9994           0
     22772 TIP3     2991     TIP3     H1       HT       0.417000       1.00800           0
     22773 TIP3     2991     TIP3     H2       HT       0.417000       1.00800           0
     22774 TIP3     2992     TIP3     OH2      OT      -0.834000       15.9994           0
     22775 TIP3     2992     TIP3     H1       HT       0.417000       1.00800           0
     22776 TIP3     2992     TIP3     H2       HT       0.417000       1.00800           0
     22777 TIP3     2993     TIP3     OH2      OT      -0.834000       15.9994           0
     22778 TIP3     2993     TIP3     H1       HT       0.417000       1.00800           0
     22779 TIP3     2993     TIP3     H2       HT       0.417000       1.00800           0
     22780 TIP3     2994     TIP3     OH2      OT      -0.834000       15.9994           0
     22781 TIP3     2994     TIP3     H1       HT       0.417000       1.00800           0
     22782 TIP3     2994     TIP3     H2       HT       0.417000       1.00800           0
     22783 TIP3     2995     TIP3     OH2      OT      -0.834000       15.9994           0
     22784 TIP3     2995     TIP3     H1       HT       0.417000       1.00800           0
     22785 TIP3     2995     TIP3     H2       HT       0.417000       1.00800           0
     22786 TIP3     2996     TIP3     OH2      OT      -0.834000       15.9994           0
     22787 TIP3     2996     TIP3     H1       HT       0.417000       1.00800           0
     22788 TIP3     2996     TIP3     H2       HT       0.417000       1.00800           0
     22789 TIP3     2997     TIP3     OH2      OT      -0.834000       15.9994           0
     22790 TIP3     2997     TIP3     H1       HT       0.417000       1.00800           0
     22791 TIP3     2997     TIP3     H2       HT       0.417000       1.00800           0
     22792 TIP3     2998     TIP3     OH2      OT      -0.834000       15.9994           0
     22793 TIP3     2998     TIP3     H1       HT       0.417000       1.00800           0
     22794 TIP3     2998     TIP3     H2       HT       0.417000       1.00800           0
     22795 TIP3     2999     TIP3     OH2      OT      -0.834000       15.9994           0
     22796 TIP3     2999     TIP3     H1       HT       0.417000       1.00800           0
     22797 TIP3     2999     TIP3     H2       HT       0.417000       1.00800           0
     22798 TIP3     3000     TIP3     OH2      OT      -0.834000       15.9994           0
     22799 TIP3     3000     TIP3     H1       HT       0.417000       1.00800           0
     22800 TIP3     3000     TIP3     H2       HT       0.417000       1.00800           0
     22801 TIP3     3001     TIP3     OH2      OT      -0.834000       15.9994           0
     22802 TIP3     3001     TIP3     H1       HT       0.417000       1.00800           0
     22803 TIP3     3001     TIP3     H2       HT       0.417000       1.00800           0
     22804 TIP3     3002     TIP3     OH2      OT      -0.834000       15.9994           0
     22805 TIP3     3002     TIP3     H1       HT       0.417000       1.00800           0
     22806 TIP3     3002     TIP3     H2       HT       0.417000       1.00800           0
     22807 TIP3     3003     TIP3     OH2      OT      -0.834000       15.9994           0
     22808 TIP3     3003     TIP3     H1       HT       0.417000       1.00800           0
     22809 TIP3     3003     TIP3     H2       HT       0.417000       1.00800           0
     22810 TIP3     3004     TIP3     OH2      OT      -0.834000       15.9994           0
     22811 TIP3     3004     TIP3     H1       HT       0.417000       1.00800           0
     22812 TIP3     3004     TIP3     H2       HT       0.417000       1.00800           0
     22813 TIP3     3005     TIP3     OH2      OT      -0.834000       15.9994           0
     22814 TIP3     3005     TIP3     H1       HT       0.417000       1.00800           0
     22815 TIP3     3005     TIP3     H2       HT       0.417000       1.00800           0
     22816 TIP3     3006     TIP3     OH2      OT      -0.834000       15.9994           0
     22817 TIP3     3006     TIP3     H1       HT       0.417000       1.00800           0
     22818 TIP3     3006     TIP3     H2       HT       0.417000       1.00800           0
     22819 TIP3     3007     TIP3     OH2      OT      -0.834000       15.9994           0
     22820 TIP3     3007     TIP3     H1       HT       0.417000       1.00800           0
     22821 TIP3     3007     TIP3     H2       HT       0.417000       1.00800           0
     22822 TIP3     3008     TIP3     OH2      OT      -0.834000       15.9994           0
     22823 TIP3     3008     TIP3     H1       HT       0.417000       1.00800           0
     22824 TIP3     3008     TIP3     H2       HT       0.417000       1.00800           0
     22825 TIP3     3009     TIP3     OH2      OT      -0.834000       15.9994           0
     22826 TIP3     3009     TIP3     H1       HT       0.417000       1.00800           0
     22827 TIP3     3009     TIP3     H2       HT       0.417000       1.00800           0
     22828 TIP3     3010     TIP3     OH2      OT      -0.834000       15.9994           0
     22829 TIP3     3010     TIP3     H1       HT       0.417000       1.00800           0
     22830 TIP3     3010     TIP3     H2       HT       0.417000       1.00800           0
     22831 TIP3     3011     TIP3     OH2      OT      -0.834000       15.9994           0
     22832 TIP3     3011     TIP3     H1       HT       0.417000       1.00800           0
     22833 TIP3     3011     TIP3     H2       HT       0.417000       1.00800           0
     22834 TIP3     3012     TIP3     OH2      OT      -0.834000       15.9994           0
     22835 TIP3     3012     TIP3     H1       HT       0.417000       1.00800           0
     22836 TIP3     3012     TIP3     H2       HT       0.417000       1.00800           0
     22837 TIP3     3013     TIP3     OH2      OT      -0.834000       15.9994           0
     22838 TIP3     3013     TIP3     H1       HT       0.417000       1.00800           0
     22839 TIP3     3013     TIP3     H2       HT       0.417000       1.00800           0
     22840 TIP3     3014     TIP3     OH2      OT      -0.834000       15.9994           0
     22841 TIP3     3014     TIP3     H1       HT       0.417000       1.00800           0
     22842 TIP3     3014     TIP3     H2       HT       0.417000       1.00800           0
     22843 TIP3     3015     TIP3     OH2      OT      -0.834000       15.9994           0
     22844 TIP3     3015     TIP3     H1       HT       0.417000       1.00800           0
     22845 TIP3     3015     TIP3     H2       HT       0.417000       1.00800           0
     22846 TIP3     3016     TIP3     OH2      OT      -0.834000       15.9994           0
     22847 TIP3     3016     TIP3     H1       HT       0.417000       1.00800           0
     22848 TIP3     3016     TIP3     H2       HT       0.417000       1.00800           0
     22849 TIP3     3017     TIP3     OH2      OT      -0.834000       15.9994           0
     22850 TIP3     3017     TIP3     H1       HT       0.417000       1.00800           0
     22851 TIP3     3017     TIP3     H2       HT       0.417000       1.00800           0
     22852 TIP3     3018     TIP3     OH2      OT      -0.834000       15.9994           0
     22853 TIP3     3018     TIP3     H1       HT       0.417000       1.00800           0
     22854 TIP3     3018     TIP3     H2       HT       0.417000       1.00800           0
     22855 TIP3     3019     TIP3     OH2      OT      -0.834000       15.9994           0
     22856 TIP3     3019     TIP3     H1       HT       0.417000       1.00800           0
     22857 TIP3     3019     TIP3     H2       HT       0.417000       1.00800           0
     22858 TIP3     3020     TIP3     OH2      OT      -0.834000       15.9994           0
     22859 TIP3     3020     TIP3     H1       HT       0.417000       1.00800           0
     22860 TIP3     3020     TIP3     H2       HT       0.417000       1.00800           0
     22861 TIP3     3021     TIP3     OH2      OT      -0.834000       15.9994           0
     22862 TIP3     3021     TIP3     H1       HT       0.417000       1.00800           0
     22863 TIP3     3021     TIP3     H2       HT       0.417000       1.00800           0
     22864 TIP3     3022     TIP3     OH2      OT      -0.834000       15.9994           0
     22865 TIP3     3022     TIP3     H1       HT       0.417000       1.00800           0
     22866 TIP3     3022     TIP3     H2       HT       0.417000       1.00800           0
     22867 TIP3     3023     TIP3     OH2      OT      -0.834000       15.9994           0
     22868 TIP3     3023     TIP3     H1       HT       0.417000       1.00800           0
     22869 TIP3     3023     TIP3     H2       HT       0.417000       1.00800           0
     22870 TIP3     3024     TIP3     OH2      OT      -0.834000       15.9994           0
     22871 TIP3     3024     TIP3     H1       HT       0.417000       1.00800           0
     22872 TIP3     3024     TIP3     H2       HT       0.417000       1.00800           0
     22873 TIP3     3025     TIP3     OH2      OT      -0.834000       15.9994           0
     22874 TIP3     3025     TIP3     H1       HT       0.417000       1.00800           0
     22875 TIP3     3025     TIP3     H2       HT       0.417000       1.00800           0
     22876 TIP3     3026     TIP3     OH2      OT      -0.834000       15.9994           0
     22877 TIP3     3026     TIP3     H1       HT       0.417000       1.00800           0
     22878 TIP3     3026     TIP3     H2       HT       0.417000       1.00800           0
     22879 TIP3     3027     TIP3     OH2      OT      -0.834000       15.9994           0
     22880 TIP3     3027     TIP3     H1       HT       0.417000       1.00800           0
     22881 TIP3     3027     TIP3     H2       HT       0.417000       1.00800           0
     22882 TIP3     3028     TIP3     OH2      OT      -0.834000       15.9994           0
     22883 TIP3     3028     TIP3     H1       HT       0.417000       1.00800           0
     22884 TIP3     3028     TIP3     H2       HT       0.417000       1.00800           0
     22885 TIP3     3029     TIP3     OH2      OT      -0.834000       15.9994           0
     22886 TIP3     3029     TIP3     H1       HT       0.417000       1.00800           0
     22887 TIP3     3029     TIP3     H2       HT       0.417000       1.00800           0
     22888 TIP3     3030     TIP3     OH2      OT      -0.834000       15.9994           0
     22889 TIP3     3030     TIP3     H1       HT       0.417000       1.00800           0
     22890 TIP3     3030     TIP3     H2       HT       0.417000       1.00800           0
     22891 TIP3     3031     TIP3     OH2      OT      -0.834000       15.9994           0
     22892 TIP3     3031     TIP3     H1       HT       0.417000       1.00800           0
     22893 TIP3     3031     TIP3     H2       HT       0.417000       1.00800           0
     22894 TIP3     3032     TIP3     OH2      OT      -0.834000       15.9994           0
     22895 TIP3     3032     TIP3     H1       HT       0.417000       1.00800           0
     22896 TIP3     3032     TIP3     H2       HT       0.417000       1.00800           0
     22897 TIP3     3033     TIP3     OH2      OT      -0.834000       15.9994           0
     22898 TIP3     3033     TIP3     H1       HT       0.417000       1.00800           0
     22899 TIP3     3033     TIP3     H2       HT       0.417000       1.00800           0
     22900 TIP3     3034     TIP3     OH2      OT      -0.834000       15.9994           0
     22901 TIP3     3034     TIP3     H1       HT       0.417000       1.00800           0
     22902 TIP3     3034     TIP3     H2       HT       0.417000       1.00800           0
     22903 TIP3     3035     TIP3     OH2      OT      -0.834000       15.9994           0
     22904 TIP3     3035     TIP3     H1       HT       0.417000       1.00800           0
     22905 TIP3     3035     TIP3     H2       HT       0.417000       1.00800           0
     22906 TIP3     3036     TIP3     OH2      OT      -0.834000       15.9994           0
     22907 TIP3     3036     TIP3     H1       HT       0.417000       1.00800           0
     22908 TIP3     3036     TIP3     H2       HT       0.417000       1.00800           0
     22909 TIP3     3037     TIP3     OH2      OT      -0.834000       15.9994           0
     22910 TIP3     3037     TIP3     H1       HT       0.417000       1.00800           0
     22911 TIP3     3037     TIP3     H2       HT       0.417000       1.00800           0
     22912 TIP3     3038     TIP3     OH2      OT      -0.834000       15.9994           0
     22913 TIP3     3038     TIP3     H1       HT       0.417000       1.00800           0
     22914 TIP3     3038     TIP3     H2       HT       0.417000       1.00800           0
     22915 TIP3     3039     TIP3     OH2      OT      -0.834000       15.9994           0
     22916 TIP3     3039     TIP3     H1       HT       0.417000       1.00800           0
     22917 TIP3     3039     TIP3     H2       HT       0.417000       1.00800           0
     22918 TIP3     3040     TIP3     OH2      OT      -0.834000       15.9994           0
     22919 TIP3     3040     TIP3     H1       HT       0.417000       1.00800           0
     22920 TIP3     3040     TIP3     H2       HT       0.417000       1.00800           0
     22921 TIP3     3041     TIP3     OH2      OT      -0.834000       15.9994           0
     22922 TIP3     3041     TIP3     H1       HT       0.417000       1.00800           0
     22923 TIP3     3041     TIP3     H2       HT       0.417000       1.00800           0
     22924 TIP3     3042     TIP3     OH2      OT      -0.834000       15.9994           0
     22925 TIP3     3042     TIP3     H1       HT       0.417000       1.00800           0
     22926 TIP3     3042     TIP3     H2       HT       0.417000       1.00800           0
     22927 TIP3     3043     TIP3     OH2      OT      -0.834000       15.9994           0
     22928 TIP3     3043     TIP3     H1       HT       0.417000       1.00800           0
     22929 TIP3     3043     TIP3     H2       HT       0.417000       1.00800           0
     22930 TIP3     3044     TIP3     OH2      OT      -0.834000       15.9994           0
     22931 TIP3     3044     TIP3     H1       HT       0.417000       1.00800           0
     22932 TIP3     3044     TIP3     H2       HT       0.417000       1.00800           0
     22933 TIP3     3045     TIP3     OH2      OT      -0.834000       15.9994           0
     22934 TIP3     3045     TIP3     H1       HT       0.417000       1.00800           0
     22935 TIP3     3045     TIP3     H2       HT       0.417000       1.00800           0
     22936 TIP3     3046     TIP3     OH2      OT      -0.834000       15.9994           0
     22937 TIP3     3046     TIP3     H1       HT       0.417000       1.00800           0
     22938 TIP3     3046     TIP3     H2       HT       0.417000       1.00800           0
     22939 TIP3     3047     TIP3     OH2      OT      -0.834000       15.9994           0
     22940 TIP3     3047     TIP3     H1       HT       0.417000       1.00800           0
     22941 TIP3     3047     TIP3     H2       HT       0.417000       1.00800           0
     22942 TIP3     3048     TIP3     OH2      OT      -0.834000       15.9994           0
     22943 TIP3     3048     TIP3     H1       HT       0.417000       1.00800           0
     22944 TIP3     3048     TIP3     H2       HT       0.417000       1.00800           0
     22945 TIP3     3049     TIP3     OH2      OT      -0.834000       15.9994           0
     22946 TIP3     3049     TIP3     H1       HT       0.417000       1.00800           0
     22947 TIP3     3049     TIP3     H2       HT       0.417000       1.00800           0
     22948 TIP3     3050     TIP3     OH2      OT      -0.834000       15.9994           0
     22949 TIP3     3050     TIP3     H1       HT       0.417000       1.00800           0
     22950 TIP3     3050     TIP3     H2       HT       0.417000       1.00800           0
     22951 TIP3     3051     TIP3     OH2      OT      -0.834000       15.9994           0
     22952 TIP3     3051     TIP3     H1       HT       0.417000       1.00800           0
     22953 TIP3     3051     TIP3     H2       HT       0.417000       1.00800           0
     22954 TIP3     3052     TIP3     OH2      OT      -0.834000       15.9994           0
     22955 TIP3     3052     TIP3     H1       HT       0.417000       1.00800           0
     22956 TIP3     3052     TIP3     H2       HT       0.417000       1.00800           0
     22957 TIP3     3053     TIP3     OH2      OT      -0.834000       15.9994           0
     22958 TIP3     3053     TIP3     H1       HT       0.417000       1.00800           0
     22959 TIP3     3053     TIP3     H2       HT       0.417000       1.00800           0
     22960 TIP3     3054     TIP3     OH2      OT      -0.834000       15.9994           0
     22961 TIP3     3054     TIP3     H1       HT       0.417000       1.00800           0
     22962 TIP3     3054     TIP3     H2       HT       0.417000       1.00800           0
     22963 TIP3     3055     TIP3     OH2      OT      -0.834000       15.9994           0
     22964 TIP3     3055     TIP3     H1       HT       0.417000       1.00800           0
     22965 TIP3     3055     TIP3     H2       HT       0.417000       1.00800           0
     22966 TIP3     3056     TIP3     OH2      OT      -0.834000       15.9994           0
     22967 TIP3     3056     TIP3     H1       HT       0.417000       1.00800           0
     22968 TIP3     3056     TIP3     H2       HT       0.417000       1.00800           0
     22969 TIP3     3057     TIP3     OH2      OT      -0.834000       15.9994           0
     22970 TIP3     3057     TIP3     H1       HT       0.417000       1.00800           0
     22971 TIP3     3057     TIP3     H2       HT       0.417000       1.00800           0
     22972 TIP3     3058     TIP3     OH2      OT      -0.834000       15.9994           0
     22973 TIP3     3058     TIP3     H1       HT       0.417000       1.00800           0
     22974 TIP3     3058     TIP3     H2       HT       0.417000       1.00800           0
     22975 TIP3     3059     TIP3     OH2      OT      -0.834000       15.9994           0
     22976 TIP3     3059     TIP3     H1       HT       0.417000       1.00800           0
     22977 TIP3     3059     TIP3     H2       HT       0.417000       1.00800           0
     22978 TIP3     3060     TIP3     OH2      OT      -0.834000       15.9994           0
     22979 TIP3     3060     TIP3     H1       HT       0.417000       1.00800           0
     22980 TIP3     3060     TIP3     H2       HT       0.417000       1.00800           0
     22981 TIP3     3061     TIP3     OH2      OT      -0.834000       15.9994           0
     22982 TIP3     3061     TIP3     H1       HT       0.417000       1.00800           0
     22983 TIP3     3061     TIP3     H2       HT       0.417000       1.00800           0
     22984 TIP3     3062     TIP3     OH2      OT      -0.834000       15.9994           0
     22985 TIP3     3062     TIP3     H1       HT       0.417000       1.00800           0
     22986 TIP3     3062     TIP3     H2       HT       0.417000       1.00800           0
     22987 TIP3     3063     TIP3     OH2      OT      -0.834000       15.9994           0
     22988 TIP3     3063     TIP3     H1       HT       0.417000       1.00800           0
     22989 TIP3     3063     TIP3     H2       HT       0.417000       1.00800           0
     22990 TIP3     3064     TIP3     OH2      OT      -0.834000       15.9994           0
     22991 TIP3     3064     TIP3     H1       HT       0.417000       1.00800           0
     22992 TIP3     3064     TIP3     H2       HT       0.417000       1.00800           0
     22993 TIP3     3065     TIP3     OH2      OT      -0.834000       15.9994           0
     22994 TIP3     3065     TIP3     H1       HT       0.417000       1.00800           0
     22995 TIP3     3065     TIP3     H2       HT       0.417000       1.00800           0
     22996 TIP3     3066     TIP3     OH2      OT      -0.834000       15.9994           0
     22997 TIP3     3066     TIP3     H1       HT       0.417000       1.00800           0
     22998 TIP3     3066     TIP3     H2       HT       0.417000       1.00800           0
     22999 TIP3     3067     TIP3     OH2      OT      -0.834000       15.9994           0
     23000 TIP3     3067     TIP3     H1       HT       0.417000       1.00800           0
     23001 TIP3     3067     TIP3     H2       HT       0.417000       1.00800           0
     23002 TIP3     3068     TIP3     OH2      OT      -0.834000       15.9994           0
     23003 TIP3     3068     TIP3     H1       HT       0.417000       1.00800           0
     23004 TIP3     3068     TIP3     H2       HT       0.417000       1.00800           0
     23005 TIP3     3069     TIP3     OH2      OT      -0.834000       15.9994           0
     23006 TIP3     3069     TIP3     H1       HT       0.417000       1.00800           0
     23007 TIP3     3069     TIP3     H2       HT       0.417000       1.00800           0
     23008 TIP3     3070     TIP3     OH2      OT      -0.834000       15.9994           0
     23009 TIP3     3070     TIP3     H1       HT       0.417000       1.00800           0
     23010 TIP3     3070     TIP3     H2       HT       0.417000       1.00800           0
     23011 TIP3     3071     TIP3     OH2      OT      -0.834000       15.9994           0
     23012 TIP3     3071     TIP3     H1       HT       0.417000       1.00800           0
     23013 TIP3     3071     TIP3     H2       HT       0.417000       1.00800           0
     23014 TIP3     3072     TIP3     OH2      OT      -0.834000       15.9994           0
     23015 TIP3     3072     TIP3     H1       HT       0.417000       1.00800           0
     23016 TIP3     3072     TIP3     H2       HT       0.417000       1.00800           0
     23017 TIP3     3073     TIP3     OH2      OT      -0.834000       15.9994           0
     23018 TIP3     3073     TIP3     H1       HT       0.417000       1.00800           0
     23019 TIP3     3073     TIP3     H2       HT       0.417000       1.00800           0
     23020 TIP3     3074     TIP3     OH2      OT      -0.834000       15.9994           0
     23021 TIP3     3074     TIP3     H1       HT       0.417000       1.00800           0
     23022 TIP3     3074     TIP3     H2       HT       0.417000       1.00800           0
     23023 TIP3     3075     TIP3     OH2      OT      -0.834000       15.9994           0
     23024 TIP3     3075     TIP3     H1       HT       0.417000       1.00800           0
     23025 TIP3     3075     TIP3     H2       HT       0.417000       1.00800           0
     23026 TIP3     3076     TIP3     OH2      OT      -0.834000       15.9994           0
     23027 TIP3     3076     TIP3     H1       HT       0.417000       1.00800           0
     23028 TIP3     3076     TIP3     H2       HT       0.417000       1.00800           0
     23029 TIP3     3077     TIP3     OH2      OT      -0.834000       15.9994           0
     23030 TIP3     3077     TIP3     H1       HT       0.417000       1.00800           0
     23031 TIP3     3077     TIP3     H2       HT       0.417000       1.00800           0
     23032 TIP3     3078     TIP3     OH2      OT      -0.834000       15.9994           0
     23033 TIP3     3078     TIP3     H1       HT       0.417000       1.00800           0
     23034 TIP3     3078     TIP3     H2       HT       0.417000       1.00800           0
     23035 TIP3     3079     TIP3     OH2      OT      -0.834000       15.9994           0
     23036 TIP3     3079     TIP3     H1       HT       0.417000       1.00800           0
     23037 TIP3     3079     TIP3     H2       HT       0.417000       1.00800           0
     23038 TIP3     3080     TIP3     OH2      OT      -0.834000       15.9994           0
     23039 TIP3     3080     TIP3     H1       HT       0.417000       1.00800           0
     23040 TIP3     3080     TIP3     H2       HT       0.417000       1.00800           0
     23041 TIP3     3081     TIP3     OH2      OT      -0.834000       15.9994           0
     23042 TIP3     3081     TIP3     H1       HT       0.417000       1.00800           0
     23043 TIP3     3081     TIP3     H2       HT       0.417000       1.00800           0
     23044 TIP3     3082     TIP3     OH2      OT      -0.834000       15.9994           0
     23045 TIP3     3082     TIP3     H1       HT       0.417000       1.00800           0
     23046 TIP3     3082     TIP3     H2       HT       0.417000       1.00800           0
     23047 TIP3     3083     TIP3     OH2      OT      -0.834000       15.9994           0
     23048 TIP3     3083     TIP3     H1       HT       0.417000       1.00800           0
     23049 TIP3     3083     TIP3     H2       HT       0.417000       1.00800           0
     23050 TIP3     3084     TIP3     OH2      OT      -0.834000       15.9994           0
     23051 TIP3     3084     TIP3     H1       HT       0.417000       1.00800           0
     23052 TIP3     3084     TIP3     H2       HT       0.417000       1.00800           0
     23053 TIP3     3085     TIP3     OH2      OT      -0.834000       15.9994           0
     23054 TIP3     3085     TIP3     H1       HT       0.417000       1.00800           0
     23055 TIP3     3085     TIP3     H2       HT       0.417000       1.00800           0
     23056 TIP3     3086     TIP3     OH2      OT      -0.834000       15.9994           0
     23057 TIP3     3086     TIP3     H1       HT       0.417000       1.00800           0
     23058 TIP3     3086     TIP3     H2       HT       0.417000       1.00800           0
     23059 TIP3     3087     TIP3     OH2      OT      -0.834000       15.9994           0
     23060 TIP3     3087     TIP3     H1       HT       0.417000       1.00800           0
     23061 TIP3     3087     TIP3     H2       HT       0.417000       1.00800           0
     23062 TIP3     3088     TIP3     OH2      OT      -0.834000       15.9994           0
     23063 TIP3     3088     TIP3     H1       HT       0.417000       1.00800           0
     23064 TIP3     3088     TIP3     H2       HT       0.417000       1.00800           0
     23065 TIP3     3089     TIP3     OH2      OT      -0.834000       15.9994           0
     23066 TIP3     3089     TIP3     H1       HT       0.417000       1.00800           0
     23067 TIP3     3089     TIP3     H2       HT       0.417000       1.00800           0
     23068 TIP3     3090     TIP3     OH2      OT      -0.834000       15.9994           0
     23069 TIP3     3090     TIP3     H1       HT       0.417000       1.00800           0
     23070 TIP3     3090     TIP3     H2       HT       0.417000       1.00800           0
     23071 TIP3     3091     TIP3     OH2      OT      -0.834000       15.9994           0
     23072 TIP3     3091     TIP3     H1       HT       0.417000       1.00800           0
     23073 TIP3     3091     TIP3     H2       HT       0.417000       1.00800           0
     23074 TIP3     3092     TIP3     OH2      OT      -0.834000       15.9994           0
     23075 TIP3     3092     TIP3     H1       HT       0.417000       1.00800           0
     23076 TIP3     3092     TIP3     H2       HT       0.417000       1.00800           0
     23077 TIP3     3093     TIP3     OH2      OT      -0.834000       15.9994           0
     23078 TIP3     3093     TIP3     H1       HT       0.417000       1.00800           0
     23079 TIP3     3093     TIP3     H2       HT       0.417000       1.00800           0
     23080 TIP3     3094     TIP3     OH2      OT      -0.834000       15.9994           0
     23081 TIP3     3094     TIP3     H1       HT       0.417000       1.00800           0
     23082 TIP3     3094     TIP3     H2       HT       0.417000       1.00800           0
     23083 TIP3     3095     TIP3     OH2      OT      -0.834000       15.9994           0
     23084 TIP3     3095     TIP3     H1       HT       0.417000       1.00800           0
     23085 TIP3     3095     TIP3     H2       HT       0.417000       1.00800           0
     23086 TIP3     3096     TIP3     OH2      OT      -0.834000       15.9994           0
     23087 TIP3     3096     TIP3     H1       HT       0.417000       1.00800           0
     23088 TIP3     3096     TIP3     H2       HT       0.417000       1.00800           0
     23089 TIP3     3097     TIP3     OH2      OT      -0.834000       15.9994           0
     23090 TIP3     3097     TIP3     H1       HT       0.417000       1.00800           0
     23091 TIP3     3097     TIP3     H2       HT       0.417000       1.00800           0
     23092 TIP3     3098     TIP3     OH2      OT      -0.834000       15.9994           0
     23093 TIP3     3098     TIP3     H1       HT       0.417000       1.00800           0
     23094 TIP3     3098     TIP3     H2       HT       0.417000       1.00800           0
     23095 TIP3     3099     TIP3     OH2      OT      -0.834000       15.9994           0
     23096 TIP3     3099     TIP3     H1       HT       0.417000       1.00800           0
     23097 TIP3     3099     TIP3     H2       HT       0.417000       1.00800           0
     23098 TIP3     3100     TIP3     OH2      OT      -0.834000       15.9994           0
     23099 TIP3     3100     TIP3     H1       HT       0.417000       1.00800           0
     23100 TIP3     3100     TIP3     H2       HT       0.417000       1.00800           0
     23101 TIP3     3101     TIP3     OH2      OT      -0.834000       15.9994           0
     23102 TIP3     3101     TIP3     H1       HT       0.417000       1.00800           0
     23103 TIP3     3101     TIP3     H2       HT       0.417000       1.00800           0
     23104 TIP3     3102     TIP3     OH2      OT      -0.834000       15.9994           0
     23105 TIP3     3102     TIP3     H1       HT       0.417000       1.00800           0
     23106 TIP3     3102     TIP3     H2       HT       0.417000       1.00800           0
     23107 TIP3     3103     TIP3     OH2      OT      -0.834000       15.9994           0
     23108 TIP3     3103     TIP3     H1       HT       0.417000       1.00800           0
     23109 TIP3     3103     TIP3     H2       HT       0.417000       1.00800           0
     23110 TIP3     3104     TIP3     OH2      OT      -0.834000       15.9994           0
     23111 TIP3     3104     TIP3     H1       HT       0.417000       1.00800           0
     23112 TIP3     3104     TIP3     H2       HT       0.417000       1.00800           0
     23113 TIP3     3105     TIP3     OH2      OT      -0.834000       15.9994           0
     23114 TIP3     3105     TIP3     H1       HT       0.417000       1.00800           0
     23115 TIP3     3105     TIP3     H2       HT       0.417000       1.00800           0
     23116 TIP3     3106     TIP3     OH2      OT      -0.834000       15.9994           0
     23117 TIP3     3106     TIP3     H1       HT       0.417000       1.00800           0
     23118 TIP3     3106     TIP3     H2       HT       0.417000       1.00800           0
     23119 TIP3     3107     TIP3     OH2      OT      -0.834000       15.9994           0
     23120 TIP3     3107     TIP3     H1       HT       0.417000       1.00800           0
     23121 TIP3     3107     TIP3     H2       HT       0.417000       1.00800           0
     23122 TIP3     3108     TIP3     OH2      OT      -0.834000       15.9994           0
     23123 TIP3     3108     TIP3     H1       HT       0.417000       1.00800           0
     23124 TIP3     3108     TIP3     H2       HT       0.417000       1.00800           0
     23125 TIP3     3109     TIP3     OH2      OT      -0.834000       15.9994           0
     23126 TIP3     3109     TIP3     H1       HT       0.417000       1.00800           0
     23127 TIP3     3109     TIP3     H2       HT       0.417000       1.00800           0
     23128 TIP3     3110     TIP3     OH2      OT      -0.834000       15.9994           0
     23129 TIP3     3110     TIP3     H1       HT       0.417000       1.00800           0
     23130 TIP3     3110     TIP3     H2       HT       0.417000       1.00800           0
     23131 TIP3     3111     TIP3     OH2      OT      -0.834000       15.9994           0
     23132 TIP3     3111     TIP3     H1       HT       0.417000       1.00800           0
     23133 TIP3     3111     TIP3     H2       HT       0.417000       1.00800           0
     23134 TIP3     3112     TIP3     OH2      OT      -0.834000       15.9994           0
     23135 TIP3     3112     TIP3     H1       HT       0.417000       1.00800           0
     23136 TIP3     3112     TIP3     H2       HT       0.417000       1.00800           0
     23137 TIP3     3113     TIP3     OH2      OT      -0.834000       15.9994           0
     23138 TIP3     3113     TIP3     H1       HT       0.417000       1.00800           0
     23139 TIP3     3113     TIP3     H2       HT       0.417000       1.00800           0
     23140 TIP3     3114     TIP3     OH2      OT      -0.834000       15.9994           0
     23141 TIP3     3114     TIP3     H1       HT       0.417000       1.00800           0
     23142 TIP3     3114     TIP3     H2       HT       0.417000       1.00800           0
     23143 TIP3     3115     TIP3     OH2      OT      -0.834000       15.9994           0
     23144 TIP3     3115     TIP3     H1       HT       0.417000       1.00800           0
     23145 TIP3     3115     TIP3     H2       HT       0.417000       1.00800           0
     23146 TIP3     3116     TIP3     OH2      OT      -0.834000       15.9994           0
     23147 TIP3     3116     TIP3     H1       HT       0.417000       1.00800           0
     23148 TIP3     3116     TIP3     H2       HT       0.417000       1.00800           0
     23149 TIP3     3117     TIP3     OH2      OT      -0.834000       15.9994           0
     23150 TIP3     3117     TIP3     H1       HT       0.417000       1.00800           0
     23151 TIP3     3117     TIP3     H2       HT       0.417000       1.00800           0
     23152 TIP3     3118     TIP3     OH2      OT      -0.834000       15.9994           0
     23153 TIP3     3118     TIP3     H1       HT       0.417000       1.00800           0
     23154 TIP3     3118     TIP3     H2       HT       0.417000       1.00800           0
     23155 TIP3     3119     TIP3     OH2      OT      -0.834000       15.9994           0
     23156 TIP3     3119     TIP3     H1       HT       0.417000       1.00800           0
     23157 TIP3     3119     TIP3     H2       HT       0.417000       1.00800           0
     23158 TIP3     3120     TIP3     OH2      OT      -0.834000       15.9994           0
     23159 TIP3     3120     TIP3     H1       HT       0.417000       1.00800           0
     23160 TIP3     3120     TIP3     H2       HT       0.417000       1.00800           0
     23161 TIP3     3121     TIP3     OH2      OT      -0.834000       15.9994           0
     23162 TIP3     3121     TIP3     H1       HT       0.417000       1.00800           0
     23163 TIP3     3121     TIP3     H2       HT       0.417000       1.00800           0
     23164 TIP3     3122     TIP3     OH2      OT      -0.834000       15.9994           0
     23165 TIP3     3122     TIP3     H1       HT       0.417000       1.00800           0
     23166 TIP3     3122     TIP3     H2       HT       0.417000       1.00800           0
     23167 TIP3     3123     TIP3     OH2      OT      -0.834000       15.9994           0
     23168 TIP3     3123     TIP3     H1       HT       0.417000       1.00800           0
     23169 TIP3     3123     TIP3     H2       HT       0.417000       1.00800           0
     23170 TIP3     3124     TIP3     OH2      OT      -0.834000       15.9994           0
     23171 TIP3     3124     TIP3     H1       HT       0.417000       1.00800           0
     23172 TIP3     3124     TIP3     H2       HT       0.417000       1.00800           0
     23173 TIP3     3125     TIP3     OH2      OT      -0.834000       15.9994           0
     23174 TIP3     3125     TIP3     H1       HT       0.417000       1.00800           0
     23175 TIP3     3125     TIP3     H2       HT       0.417000       1.00800           0
     23176 TIP3     3126     TIP3     OH2      OT      -0.834000       15.9994           0
     23177 TIP3     3126     TIP3     H1       HT       0.417000       1.00800           0
     23178 TIP3     3126     TIP3     H2       HT       0.417000       1.00800           0
     23179 TIP3     3127     TIP3     OH2      OT      -0.834000       15.9994           0
     23180 TIP3     3127     TIP3     H1       HT       0.417000       1.00800           0
     23181 TIP3     3127     TIP3     H2       HT       0.417000       1.00800           0
     23182 TIP3     3128     TIP3     OH2      OT      -0.834000       15.9994           0
     23183 TIP3     3128     TIP3     H1       HT       0.417000       1.00800           0
     23184 TIP3     3128     TIP3     H2       HT       0.417000       1.00800           0
     23185 TIP3     3129     TIP3     OH2      OT      -0.834000       15.9994           0
     23186 TIP3     3129     TIP3     H1       HT       0.417000       1.00800           0
     23187 TIP3     3129     TIP3     H2       HT       0.417000       1.00800           0
     23188 TIP3     3130     TIP3     OH2      OT      -0.834000       15.9994           0
     23189 TIP3     3130     TIP3     H1       HT       0.417000       1.00800           0
     23190 TIP3     3130     TIP3     H2       HT       0.417000       1.00800           0
     23191 TIP3     3131     TIP3     OH2      OT      -0.834000       15.9994           0
     23192 TIP3     3131     TIP3     H1       HT       0.417000       1.00800           0
     23193 TIP3     3131     TIP3     H2       HT       0.417000       1.00800           0
     23194 TIP3     3132     TIP3     OH2      OT      -0.834000       15.9994           0
     23195 TIP3     3132     TIP3     H1       HT       0.417000       1.00800           0
     23196 TIP3     3132     TIP3     H2       HT       0.417000       1.00800           0
     23197 TIP3     3133     TIP3     OH2      OT      -0.834000       15.9994           0
     23198 TIP3     3133     TIP3     H1       HT       0.417000       1.00800           0
     23199 TIP3     3133     TIP3     H2       HT       0.417000       1.00800           0
     23200 TIP3     3134     TIP3     OH2      OT      -0.834000       15.9994           0
     23201 TIP3     3134     TIP3     H1       HT       0.417000       1.00800           0
     23202 TIP3     3134     TIP3     H2       HT       0.417000       1.00800           0
     23203 TIP3     3135     TIP3     OH2      OT      -0.834000       15.9994           0
     23204 TIP3     3135     TIP3     H1       HT       0.417000       1.00800           0
     23205 TIP3     3135     TIP3     H2       HT       0.417000       1.00800           0
     23206 TIP3     3136     TIP3     OH2      OT      -0.834000       15.9994           0
     23207 TIP3     3136     TIP3     H1       HT       0.417000       1.00800           0
     23208 TIP3     3136     TIP3     H2       HT       0.417000       1.00800           0
     23209 TIP3     3137     TIP3     OH2      OT      -0.834000       15.9994           0
     23210 TIP3     3137     TIP3     H1       HT       0.417000       1.00800           0
     23211 TIP3     3137     TIP3     H2       HT       0.417000       1.00800           0
     23212 TIP3     3138     TIP3     OH2      OT      -0.834000       15.9994           0
     23213 TIP3     3138     TIP3     H1       HT       0.417000       1.00800           0
     23214 TIP3     3138     TIP3     H2       HT       0.417000       1.00800           0
     23215 TIP3     3139     TIP3     OH2      OT      -0.834000       15.9994           0
     23216 TIP3     3139     TIP3     H1       HT       0.417000       1.00800           0
     23217 TIP3     3139     TIP3     H2       HT       0.417000       1.00800           0
     23218 TIP3     3140     TIP3     OH2      OT      -0.834000       15.9994           0
     23219 TIP3     3140     TIP3     H1       HT       0.417000       1.00800           0
     23220 TIP3     3140     TIP3     H2       HT       0.417000       1.00800           0
     23221 TIP3     3141     TIP3     OH2      OT      -0.834000       15.9994           0
     23222 TIP3     3141     TIP3     H1       HT       0.417000       1.00800           0
     23223 TIP3     3141     TIP3     H2       HT       0.417000       1.00800           0
     23224 TIP3     3142     TIP3     OH2      OT      -0.834000       15.9994           0
     23225 TIP3     3142     TIP3     H1       HT       0.417000       1.00800           0
     23226 TIP3     3142     TIP3     H2       HT       0.417000       1.00800           0
     23227 TIP3     3143     TIP3     OH2      OT      -0.834000       15.9994           0
     23228 TIP3     3143     TIP3     H1       HT       0.417000       1.00800           0
     23229 TIP3     3143     TIP3     H2       HT       0.417000       1.00800           0
     23230 TIP3     3144     TIP3     OH2      OT      -0.834000       15.9994           0
     23231 TIP3     3144     TIP3     H1       HT       0.417000       1.00800           0
     23232 TIP3     3144     TIP3     H2       HT       0.417000       1.00800           0
     23233 TIP3     3145     TIP3     OH2      OT      -0.834000       15.9994           0
     23234 TIP3     3145     TIP3     H1       HT       0.417000       1.00800           0
     23235 TIP3     3145     TIP3     H2       HT       0.417000       1.00800           0
     23236 TIP3     3146     TIP3     OH2      OT      -0.834000       15.9994           0
     23237 TIP3     3146     TIP3     H1       HT       0.417000       1.00800           0
     23238 TIP3     3146     TIP3     H2       HT       0.417000       1.00800           0
     23239 TIP3     3147     TIP3     OH2      OT      -0.834000       15.9994           0
     23240 TIP3     3147     TIP3     H1       HT       0.417000       1.00800           0
     23241 TIP3     3147     TIP3     H2       HT       0.417000       1.00800           0
     23242 TIP3     3148     TIP3     OH2      OT      -0.834000       15.9994           0
     23243 TIP3     3148     TIP3     H1       HT       0.417000       1.00800           0
     23244 TIP3     3148     TIP3     H2       HT       0.417000       1.00800           0
     23245 TIP3     3149     TIP3     OH2      OT      -0.834000       15.9994           0
     23246 TIP3     3149     TIP3     H1       HT       0.417000       1.00800           0
     23247 TIP3     3149     TIP3     H2       HT       0.417000       1.00800           0
     23248 TIP3     3150     TIP3     OH2      OT      -0.834000       15.9994           0
     23249 TIP3     3150     TIP3     H1       HT       0.417000       1.00800           0
     23250 TIP3     3150     TIP3     H2       HT       0.417000       1.00800           0
     23251 TIP3     3151     TIP3     OH2      OT      -0.834000       15.9994           0
     23252 TIP3     3151     TIP3     H1       HT       0.417000       1.00800           0
     23253 TIP3     3151     TIP3     H2       HT       0.417000       1.00800           0
     23254 TIP3     3152     TIP3     OH2      OT      -0.834000       15.9994           0
     23255 TIP3     3152     TIP3     H1       HT       0.417000       1.00800           0
     23256 TIP3     3152     TIP3     H2       HT       0.417000       1.00800           0
     23257 TIP3     3153     TIP3     OH2      OT      -0.834000       15.9994           0
     23258 TIP3     3153     TIP3     H1       HT       0.417000       1.00800           0
     23259 TIP3     3153     TIP3     H2       HT       0.417000       1.00800           0
     23260 TIP3     3154     TIP3     OH2      OT      -0.834000       15.9994           0
     23261 TIP3     3154     TIP3     H1       HT       0.417000       1.00800           0
     23262 TIP3     3154     TIP3     H2       HT       0.417000       1.00800           0
     23263 TIP3     3155     TIP3     OH2      OT      -0.834000       15.9994           0
     23264 TIP3     3155     TIP3     H1       HT       0.417000       1.00800           0
     23265 TIP3     3155     TIP3     H2       HT       0.417000       1.00800           0
     23266 TIP3     3156     TIP3     OH2      OT      -0.834000       15.9994           0
     23267 TIP3     3156     TIP3     H1       HT       0.417000       1.00800           0
     23268 TIP3     3156     TIP3     H2       HT       0.417000       1.00800           0
     23269 TIP3     3157     TIP3     OH2      OT      -0.834000       15.9994           0
     23270 TIP3     3157     TIP3     H1       HT       0.417000       1.00800           0
     23271 TIP3     3157     TIP3     H2       HT       0.417000       1.00800           0
     23272 TIP3     3158     TIP3     OH2      OT      -0.834000       15.9994           0
     23273 TIP3     3158     TIP3     H1       HT       0.417000       1.00800           0
     23274 TIP3     3158     TIP3     H2       HT       0.417000       1.00800           0
     23275 TIP3     3159     TIP3     OH2      OT      -0.834000       15.9994           0
     23276 TIP3     3159     TIP3     H1       HT       0.417000       1.00800           0
     23277 TIP3     3159     TIP3     H2       HT       0.417000       1.00800           0
     23278 TIP3     3160     TIP3     OH2      OT      -0.834000       15.9994           0
     23279 TIP3     3160     TIP3     H1       HT       0.417000       1.00800           0
     23280 TIP3     3160     TIP3     H2       HT       0.417000       1.00800           0
     23281 TIP3     3161     TIP3     OH2      OT      -0.834000       15.9994           0
     23282 TIP3     3161     TIP3     H1       HT       0.417000       1.00800           0
     23283 TIP3     3161     TIP3     H2       HT       0.417000       1.00800           0
     23284 TIP3     3162     TIP3     OH2      OT      -0.834000       15.9994           0
     23285 TIP3     3162     TIP3     H1       HT       0.417000       1.00800           0
     23286 TIP3     3162     TIP3     H2       HT       0.417000       1.00800           0
     23287 TIP3     3163     TIP3     OH2      OT      -0.834000       15.9994           0
     23288 TIP3     3163     TIP3     H1       HT       0.417000       1.00800           0
     23289 TIP3     3163     TIP3     H2       HT       0.417000       1.00800           0
     23290 TIP3     3164     TIP3     OH2      OT      -0.834000       15.9994           0
     23291 TIP3     3164     TIP3     H1       HT       0.417000       1.00800           0
     23292 TIP3     3164     TIP3     H2       HT       0.417000       1.00800           0
     23293 TIP3     3165     TIP3     OH2      OT      -0.834000       15.9994           0
     23294 TIP3     3165     TIP3     H1       HT       0.417000       1.00800           0
     23295 TIP3     3165     TIP3     H2       HT       0.417000       1.00800           0
     23296 TIP3     3166     TIP3     OH2      OT      -0.834000       15.9994           0
     23297 TIP3     3166     TIP3     H1       HT       0.417000       1.00800           0
     23298 TIP3     3166     TIP3     H2       HT       0.417000       1.00800           0
     23299 TIP3     3167     TIP3     OH2      OT      -0.834000       15.9994           0
     23300 TIP3     3167     TIP3     H1       HT       0.417000       1.00800           0
     23301 TIP3     3167     TIP3     H2       HT       0.417000       1.00800           0
     23302 TIP3     3168     TIP3     OH2      OT      -0.834000       15.9994           0
     23303 TIP3     3168     TIP3     H1       HT       0.417000       1.00800           0
     23304 TIP3     3168     TIP3     H2       HT       0.417000       1.00800           0
     23305 TIP3     3169     TIP3     OH2      OT      -0.834000       15.9994           0
     23306 TIP3     3169     TIP3     H1       HT       0.417000       1.00800           0
     23307 TIP3     3169     TIP3     H2       HT       0.417000       1.00800           0
     23308 TIP3     3170     TIP3     OH2      OT      -0.834000       15.9994           0
     23309 TIP3     3170     TIP3     H1       HT       0.417000       1.00800           0
     23310 TIP3     3170     TIP3     H2       HT       0.417000       1.00800           0
     23311 TIP3     3171     TIP3     OH2      OT      -0.834000       15.9994           0
     23312 TIP3     3171     TIP3     H1       HT       0.417000       1.00800           0
     23313 TIP3     3171     TIP3     H2       HT       0.417000       1.00800           0
     23314 TIP3     3172     TIP3     OH2      OT      -0.834000       15.9994           0
     23315 TIP3     3172     TIP3     H1       HT       0.417000       1.00800           0
     23316 TIP3     3172     TIP3     H2       HT       0.417000       1.00800           0
     23317 TIP3     3173     TIP3     OH2      OT      -0.834000       15.9994           0
     23318 TIP3     3173     TIP3     H1       HT       0.417000       1.00800           0
     23319 TIP3     3173     TIP3     H2       HT       0.417000       1.00800           0
     23320 TIP3     3174     TIP3     OH2      OT      -0.834000       15.9994           0
     23321 TIP3     3174     TIP3     H1       HT       0.417000       1.00800           0
     23322 TIP3     3174     TIP3     H2       HT       0.417000       1.00800           0
     23323 TIP3     3175     TIP3     OH2      OT      -0.834000       15.9994           0
     23324 TIP3     3175     TIP3     H1       HT       0.417000       1.00800           0
     23325 TIP3     3175     TIP3     H2       HT       0.417000       1.00800           0
     23326 TIP3     3176     TIP3     OH2      OT      -0.834000       15.9994           0
     23327 TIP3     3176     TIP3     H1       HT       0.417000       1.00800           0
     23328 TIP3     3176     TIP3     H2       HT       0.417000       1.00800           0
     23329 TIP3     3177     TIP3     OH2      OT      -0.834000       15.9994           0
     23330 TIP3     3177     TIP3     H1       HT       0.417000       1.00800           0
     23331 TIP3     3177     TIP3     H2       HT       0.417000       1.00800           0
     23332 TIP3     3178     TIP3     OH2      OT      -0.834000       15.9994           0
     23333 TIP3     3178     TIP3     H1       HT       0.417000       1.00800           0
     23334 TIP3     3178     TIP3     H2       HT       0.417000       1.00800           0
     23335 TIP3     3179     TIP3     OH2      OT      -0.834000       15.9994           0
     23336 TIP3     3179     TIP3     H1       HT       0.417000       1.00800           0
     23337 TIP3     3179     TIP3     H2       HT       0.417000       1.00800           0
     23338 TIP3     3180     TIP3     OH2      OT      -0.834000       15.9994           0
     23339 TIP3     3180     TIP3     H1       HT       0.417000       1.00800           0
     23340 TIP3     3180     TIP3     H2       HT       0.417000       1.00800           0
     23341 TIP3     3181     TIP3     OH2      OT      -0.834000       15.9994           0
     23342 TIP3     3181     TIP3     H1       HT       0.417000       1.00800           0
     23343 TIP3     3181     TIP3     H2       HT       0.417000       1.00800           0
     23344 TIP3     3182     TIP3     OH2      OT      -0.834000       15.9994           0
     23345 TIP3     3182     TIP3     H1       HT       0.417000       1.00800           0
     23346 TIP3     3182     TIP3     H2       HT       0.417000       1.00800           0
     23347 TIP3     3183     TIP3     OH2      OT      -0.834000       15.9994           0
     23348 TIP3     3183     TIP3     H1       HT       0.417000       1.00800           0
     23349 TIP3     3183     TIP3     H2       HT       0.417000       1.00800           0
     23350 TIP3     3184     TIP3     OH2      OT      -0.834000       15.9994           0
     23351 TIP3     3184     TIP3     H1       HT       0.417000       1.00800           0
     23352 TIP3     3184     TIP3     H2       HT       0.417000       1.00800           0
     23353 TIP3     3185     TIP3     OH2      OT      -0.834000       15.9994           0
     23354 TIP3     3185     TIP3     H1       HT       0.417000       1.00800           0
     23355 TIP3     3185     TIP3     H2       HT       0.417000       1.00800           0
     23356 TIP3     3186     TIP3     OH2      OT      -0.834000       15.9994           0
     23357 TIP3     3186     TIP3     H1       HT       0.417000       1.00800           0
     23358 TIP3     3186     TIP3     H2       HT       0.417000       1.00800           0
     23359 TIP3     3187     TIP3     OH2      OT      -0.834000       15.9994           0
     23360 TIP3     3187     TIP3     H1       HT       0.417000       1.00800           0
     23361 TIP3     3187     TIP3     H2       HT       0.417000       1.00800           0
     23362 TIP3     3188     TIP3     OH2      OT      -0.834000       15.9994           0
     23363 TIP3     3188     TIP3     H1       HT       0.417000       1.00800           0
     23364 TIP3     3188     TIP3     H2       HT       0.417000       1.00800           0
     23365 TIP3     3189     TIP3     OH2      OT      -0.834000       15.9994           0
     23366 TIP3     3189     TIP3     H1       HT       0.417000       1.00800           0
     23367 TIP3     3189     TIP3     H2       HT       0.417000       1.00800           0
     23368 TIP3     3190     TIP3     OH2      OT      -0.834000       15.9994           0
     23369 TIP3     3190     TIP3     H1       HT       0.417000       1.00800           0
     23370 TIP3     3190     TIP3     H2       HT       0.417000       1.00800           0
     23371 TIP3     3191     TIP3     OH2      OT      -0.834000       15.9994           0
     23372 TIP3     3191     TIP3     H1       HT       0.417000       1.00800           0
     23373 TIP3     3191     TIP3     H2       HT       0.417000       1.00800           0
     23374 TIP3     3192     TIP3     OH2      OT      -0.834000       15.9994           0
     23375 TIP3     3192     TIP3     H1       HT       0.417000       1.00800           0
     23376 TIP3     3192     TIP3     H2       HT       0.417000       1.00800           0
     23377 TIP3     3193     TIP3     OH2      OT      -0.834000       15.9994           0
     23378 TIP3     3193     TIP3     H1       HT       0.417000       1.00800           0
     23379 TIP3     3193     TIP3     H2       HT       0.417000       1.00800           0
     23380 TIP3     3194     TIP3     OH2      OT      -0.834000       15.9994           0
     23381 TIP3     3194     TIP3     H1       HT       0.417000       1.00800           0
     23382 TIP3     3194     TIP3     H2       HT       0.417000       1.00800           0
     23383 TIP3     3195     TIP3     OH2      OT      -0.834000       15.9994           0
     23384 TIP3     3195     TIP3     H1       HT       0.417000       1.00800           0
     23385 TIP3     3195     TIP3     H2       HT       0.417000       1.00800           0
     23386 TIP3     3196     TIP3     OH2      OT      -0.834000       15.9994           0
     23387 TIP3     3196     TIP3     H1       HT       0.417000       1.00800           0
     23388 TIP3     3196     TIP3     H2       HT       0.417000       1.00800           0
     23389 TIP3     3197     TIP3     OH2      OT      -0.834000       15.9994           0
     23390 TIP3     3197     TIP3     H1       HT       0.417000       1.00800           0
     23391 TIP3     3197     TIP3     H2       HT       0.417000       1.00800           0
     23392 TIP3     3198     TIP3     OH2      OT      -0.834000       15.9994           0
     23393 TIP3     3198     TIP3     H1       HT       0.417000       1.00800           0
     23394 TIP3     3198     TIP3     H2       HT       0.417000       1.00800           0
     23395 TIP3     3199     TIP3     OH2      OT      -0.834000       15.9994           0
     23396 TIP3     3199     TIP3     H1       HT       0.417000       1.00800           0
     23397 TIP3     3199     TIP3     H2       HT       0.417000       1.00800           0
     23398 TIP3     3200     TIP3     OH2      OT      -0.834000       15.9994           0
     23399 TIP3     3200     TIP3     H1       HT       0.417000       1.00800           0
     23400 TIP3     3200     TIP3     H2       HT       0.417000       1.00800           0
     23401 TIP3     3201     TIP3     OH2      OT      -0.834000       15.9994           0
     23402 TIP3     3201     TIP3     H1       HT       0.417000       1.00800           0
     23403 TIP3     3201     TIP3     H2       HT       0.417000       1.00800           0
     23404 TIP3     3202     TIP3     OH2      OT      -0.834000       15.9994           0
     23405 TIP3     3202     TIP3     H1       HT       0.417000       1.00800           0
     23406 TIP3     3202     TIP3     H2       HT       0.417000       1.00800           0
     23407 TIP3     3203     TIP3     OH2      OT      -0.834000       15.9994           0
     23408 TIP3     3203     TIP3     H1       HT       0.417000       1.00800           0
     23409 TIP3     3203     TIP3     H2       HT       0.417000       1.00800           0
     23410 TIP3     3204     TIP3     OH2      OT      -0.834000       15.9994           0
     23411 TIP3     3204     TIP3     H1       HT       0.417000       1.00800           0
     23412 TIP3     3204     TIP3     H2       HT       0.417000       1.00800           0
     23413 TIP3     3205     TIP3     OH2      OT      -0.834000       15.9994           0
     23414 TIP3     3205     TIP3     H1       HT       0.417000       1.00800           0
     23415 TIP3     3205     TIP3     H2       HT       0.417000       1.00800           0
     23416 TIP3     3206     TIP3     OH2      OT      -0.834000       15.9994           0
     23417 TIP3     3206     TIP3     H1       HT       0.417000       1.00800           0
     23418 TIP3     3206     TIP3     H2       HT       0.417000       1.00800           0
     23419 TIP3     3207     TIP3     OH2      OT      -0.834000       15.9994           0
     23420 TIP3     3207     TIP3     H1       HT       0.417000       1.00800           0
     23421 TIP3     3207     TIP3     H2       HT       0.417000       1.00800           0
     23422 TIP3     3208     TIP3     OH2      OT      -0.834000       15.9994           0
     23423 TIP3     3208     TIP3     H1       HT       0.417000       1.00800           0
     23424 TIP3     3208     TIP3     H2       HT       0.417000       1.00800           0
     23425 TIP3     3209     TIP3     OH2      OT      -0.834000       15.9994           0
     23426 TIP3     3209     TIP3     H1       HT       0.417000       1.00800           0
     23427 TIP3     3209     TIP3     H2       HT       0.417000       1.00800           0
     23428 TIP3     3210     TIP3     OH2      OT      -0.834000       15.9994           0
     23429 TIP3     3210     TIP3     H1       HT       0.417000       1.00800           0
     23430 TIP3     3210     TIP3     H2       HT       0.417000       1.00800           0
     23431 TIP3     3211     TIP3     OH2      OT      -0.834000       15.9994           0
     23432 TIP3     3211     TIP3     H1       HT       0.417000       1.00800           0
     23433 TIP3     3211     TIP3     H2       HT       0.417000       1.00800           0
     23434 TIP3     3212     TIP3     OH2      OT      -0.834000       15.9994           0
     23435 TIP3     3212     TIP3     H1       HT       0.417000       1.00800           0
     23436 TIP3     3212     TIP3     H2       HT       0.417000       1.00800           0
     23437 TIP3     3213     TIP3     OH2      OT      -0.834000       15.9994           0
     23438 TIP3     3213     TIP3     H1       HT       0.417000       1.00800           0
     23439 TIP3     3213     TIP3     H2       HT       0.417000       1.00800           0
     23440 TIP3     3214     TIP3     OH2      OT      -0.834000       15.9994           0
     23441 TIP3     3214     TIP3     H1       HT       0.417000       1.00800           0
     23442 TIP3     3214     TIP3     H2       HT       0.417000       1.00800           0
     23443 TIP3     3215     TIP3     OH2      OT      -0.834000       15.9994           0
     23444 TIP3     3215     TIP3     H1       HT       0.417000       1.00800           0
     23445 TIP3     3215     TIP3     H2       HT       0.417000       1.00800           0
     23446 TIP3     3216     TIP3     OH2      OT      -0.834000       15.9994           0
     23447 TIP3     3216     TIP3     H1       HT       0.417000       1.00800           0
     23448 TIP3     3216     TIP3     H2       HT       0.417000       1.00800           0
     23449 TIP3     3217     TIP3     OH2      OT      -0.834000       15.9994           0
     23450 TIP3     3217     TIP3     H1       HT       0.417000       1.00800           0
     23451 TIP3     3217     TIP3     H2       HT       0.417000       1.00800           0
     23452 TIP3     3218     TIP3     OH2      OT      -0.834000       15.9994           0
     23453 TIP3     3218     TIP3     H1       HT       0.417000       1.00800           0
     23454 TIP3     3218     TIP3     H2       HT       0.417000       1.00800           0
     23455 TIP3     3219     TIP3     OH2      OT      -0.834000       15.9994           0
     23456 TIP3     3219     TIP3     H1       HT       0.417000       1.00800           0
     23457 TIP3     3219     TIP3     H2       HT       0.417000       1.00800           0
     23458 TIP3     3220     TIP3     OH2      OT      -0.834000       15.9994           0
     23459 TIP3     3220     TIP3     H1       HT       0.417000       1.00800           0
     23460 TIP3     3220     TIP3     H2       HT       0.417000       1.00800           0
     23461 TIP3     3221     TIP3     OH2      OT      -0.834000       15.9994           0
     23462 TIP3     3221     TIP3     H1       HT       0.417000       1.00800           0
     23463 TIP3     3221     TIP3     H2       HT       0.417000       1.00800           0
     23464 TIP3     3222     TIP3     OH2      OT      -0.834000       15.9994           0
     23465 TIP3     3222     TIP3     H1       HT       0.417000       1.00800           0
     23466 TIP3     3222     TIP3     H2       HT       0.417000       1.00800           0
     23467 TIP3     3223     TIP3     OH2      OT      -0.834000       15.9994           0
     23468 TIP3     3223     TIP3     H1       HT       0.417000       1.00800           0
     23469 TIP3     3223     TIP3     H2       HT       0.417000       1.00800           0
     23470 TIP3     3224     TIP3     OH2      OT      -0.834000       15.9994           0
     23471 TIP3     3224     TIP3     H1       HT       0.417000       1.00800           0
     23472 TIP3     3224     TIP3     H2       HT       0.417000       1.00800           0
     23473 TIP3     3225     TIP3     OH2      OT      -0.834000       15.9994           0
     23474 TIP3     3225     TIP3     H1       HT       0.417000       1.00800           0
     23475 TIP3     3225     TIP3     H2       HT       0.417000       1.00800           0
     23476 TIP3     3226     TIP3     OH2      OT      -0.834000       15.9994           0
     23477 TIP3     3226     TIP3     H1       HT       0.417000       1.00800           0
     23478 TIP3     3226     TIP3     H2       HT       0.417000       1.00800           0
     23479 TIP3     3227     TIP3     OH2      OT      -0.834000       15.9994           0
     23480 TIP3     3227     TIP3     H1       HT       0.417000       1.00800           0
     23481 TIP3     3227     TIP3     H2       HT       0.417000       1.00800           0
     23482 TIP3     3228     TIP3     OH2      OT      -0.834000       15.9994           0
     23483 TIP3     3228     TIP3     H1       HT       0.417000       1.00800           0
     23484 TIP3     3228     TIP3     H2       HT       0.417000       1.00800           0
     23485 TIP3     3229     TIP3     OH2      OT      -0.834000       15.9994           0
     23486 TIP3     3229     TIP3     H1       HT       0.417000       1.00800           0
     23487 TIP3     3229     TIP3     H2       HT       0.417000       1.00800           0
     23488 TIP3     3230     TIP3     OH2      OT      -0.834000       15.9994           0
     23489 TIP3     3230     TIP3     H1       HT       0.417000       1.00800           0
     23490 TIP3     3230     TIP3     H2       HT       0.417000       1.00800           0
     23491 TIP3     3231     TIP3     OH2      OT      -0.834000       15.9994           0
     23492 TIP3     3231     TIP3     H1       HT       0.417000       1.00800           0
     23493 TIP3     3231     TIP3     H2       HT       0.417000       1.00800           0
     23494 TIP3     3232     TIP3     OH2      OT      -0.834000       15.9994           0
     23495 TIP3     3232     TIP3     H1       HT       0.417000       1.00800           0
     23496 TIP3     3232     TIP3     H2       HT       0.417000       1.00800           0
     23497 TIP3     3233     TIP3     OH2      OT      -0.834000       15.9994           0
     23498 TIP3     3233     TIP3     H1       HT       0.417000       1.00800           0
     23499 TIP3     3233     TIP3     H2       HT       0.417000       1.00800           0
     23500 TIP3     3234     TIP3     OH2      OT      -0.834000       15.9994           0
     23501 TIP3     3234     TIP3     H1       HT       0.417000       1.00800           0
     23502 TIP3     3234     TIP3     H2       HT       0.417000       1.00800           0
     23503 TIP3     3235     TIP3     OH2      OT      -0.834000       15.9994           0
     23504 TIP3     3235     TIP3     H1       HT       0.417000       1.00800           0
     23505 TIP3     3235     TIP3     H2       HT       0.417000       1.00800           0
     23506 TIP3     3236     TIP3     OH2      OT      -0.834000       15.9994           0
     23507 TIP3     3236     TIP3     H1       HT       0.417000       1.00800           0
     23508 TIP3     3236     TIP3     H2       HT       0.417000       1.00800           0
     23509 TIP3     3237     TIP3     OH2      OT      -0.834000       15.9994           0
     23510 TIP3     3237     TIP3     H1       HT       0.417000       1.00800           0
     23511 TIP3     3237     TIP3     H2       HT       0.417000       1.00800           0
     23512 TIP3     3238     TIP3     OH2      OT      -0.834000       15.9994           0
     23513 TIP3     3238     TIP3     H1       HT       0.417000       1.00800           0
     23514 TIP3     3238     TIP3     H2       HT       0.417000       1.00800           0
     23515 TIP3     3239     TIP3     OH2      OT      -0.834000       15.9994           0
     23516 TIP3     3239     TIP3     H1       HT       0.417000       1.00800           0
     23517 TIP3     3239     TIP3     H2       HT       0.417000       1.00800           0
     23518 TIP3     3240     TIP3     OH2      OT      -0.834000       15.9994           0
     23519 TIP3     3240     TIP3     H1       HT       0.417000       1.00800           0
     23520 TIP3     3240     TIP3     H2       HT       0.417000       1.00800           0
     23521 TIP3     3241     TIP3     OH2      OT      -0.834000       15.9994           0
     23522 TIP3     3241     TIP3     H1       HT       0.417000       1.00800           0
     23523 TIP3     3241     TIP3     H2       HT       0.417000       1.00800           0
     23524 TIP3     3242     TIP3     OH2      OT      -0.834000       15.9994           0
     23525 TIP3     3242     TIP3     H1       HT       0.417000       1.00800           0
     23526 TIP3     3242     TIP3     H2       HT       0.417000       1.00800           0
     23527 TIP3     3243     TIP3     OH2      OT      -0.834000       15.9994           0
     23528 TIP3     3243     TIP3     H1       HT       0.417000       1.00800           0
     23529 TIP3     3243     TIP3     H2       HT       0.417000       1.00800           0
     23530 TIP3     3244     TIP3     OH2      OT      -0.834000       15.9994           0
     23531 TIP3     3244     TIP3     H1       HT       0.417000       1.00800           0
     23532 TIP3     3244     TIP3     H2       HT       0.417000       1.00800           0
     23533 TIP3     3245     TIP3     OH2      OT      -0.834000       15.9994           0
     23534 TIP3     3245     TIP3     H1       HT       0.417000       1.00800           0
     23535 TIP3     3245     TIP3     H2       HT       0.417000       1.00800           0
     23536 TIP3     3246     TIP3     OH2      OT      -0.834000       15.9994           0
     23537 TIP3     3246     TIP3     H1       HT       0.417000       1.00800           0
     23538 TIP3     3246     TIP3     H2       HT       0.417000       1.00800           0
     23539 TIP3     3247     TIP3     OH2      OT      -0.834000       15.9994           0
     23540 TIP3     3247     TIP3     H1       HT       0.417000       1.00800           0
     23541 TIP3     3247     TIP3     H2       HT       0.417000       1.00800           0
     23542 TIP3     3248     TIP3     OH2      OT      -0.834000       15.9994           0
     23543 TIP3     3248     TIP3     H1       HT       0.417000       1.00800           0
     23544 TIP3     3248     TIP3     H2       HT       0.417000       1.00800           0
     23545 TIP3     3249     TIP3     OH2      OT      -0.834000       15.9994           0
     23546 TIP3     3249     TIP3     H1       HT       0.417000       1.00800           0
     23547 TIP3     3249     TIP3     H2       HT       0.417000       1.00800           0
     23548 TIP3     3250     TIP3     OH2      OT      -0.834000       15.9994           0
     23549 TIP3     3250     TIP3     H1       HT       0.417000       1.00800           0
     23550 TIP3     3250     TIP3     H2       HT       0.417000       1.00800           0
     23551 TIP3     3251     TIP3     OH2      OT      -0.834000       15.9994           0
     23552 TIP3     3251     TIP3     H1       HT       0.417000       1.00800           0
     23553 TIP3     3251     TIP3     H2       HT       0.417000       1.00800           0
     23554 TIP3     3252     TIP3     OH2      OT      -0.834000       15.9994           0
     23555 TIP3     3252     TIP3     H1       HT       0.417000       1.00800           0
     23556 TIP3     3252     TIP3     H2       HT       0.417000       1.00800           0
     23557 TIP3     3253     TIP3     OH2      OT      -0.834000       15.9994           0
     23558 TIP3     3253     TIP3     H1       HT       0.417000       1.00800           0
     23559 TIP3     3253     TIP3     H2       HT       0.417000       1.00800           0
     23560 TIP3     3254     TIP3     OH2      OT      -0.834000       15.9994           0
     23561 TIP3     3254     TIP3     H1       HT       0.417000       1.00800           0
     23562 TIP3     3254     TIP3     H2       HT       0.417000       1.00800           0
     23563 TIP3     3255     TIP3     OH2      OT      -0.834000       15.9994           0
     23564 TIP3     3255     TIP3     H1       HT       0.417000       1.00800           0
     23565 TIP3     3255     TIP3     H2       HT       0.417000       1.00800           0
     23566 TIP3     3256     TIP3     OH2      OT      -0.834000       15.9994           0
     23567 TIP3     3256     TIP3     H1       HT       0.417000       1.00800           0
     23568 TIP3     3256     TIP3     H2       HT       0.417000       1.00800           0
     23569 TIP3     3257     TIP3     OH2      OT      -0.834000       15.9994           0
     23570 TIP3     3257     TIP3     H1       HT       0.417000       1.00800           0
     23571 TIP3     3257     TIP3     H2       HT       0.417000       1.00800           0
     23572 TIP3     3258     TIP3     OH2      OT      -0.834000       15.9994           0
     23573 TIP3     3258     TIP3     H1       HT       0.417000       1.00800           0
     23574 TIP3     3258     TIP3     H2       HT       0.417000       1.00800           0
     23575 TIP3     3259     TIP3     OH2      OT      -0.834000       15.9994           0
     23576 TIP3     3259     TIP3     H1       HT       0.417000       1.00800           0
     23577 TIP3     3259     TIP3     H2       HT       0.417000       1.00800           0
     23578 TIP3     3260     TIP3     OH2      OT      -0.834000       15.9994           0
     23579 TIP3     3260     TIP3     H1       HT       0.417000       1.00800           0
     23580 TIP3     3260     TIP3     H2       HT       0.417000       1.00800           0
     23581 TIP3     3261     TIP3     OH2      OT      -0.834000       15.9994           0
     23582 TIP3     3261     TIP3     H1       HT       0.417000       1.00800           0
     23583 TIP3     3261     TIP3     H2       HT       0.417000       1.00800           0
     23584 TIP3     3262     TIP3     OH2      OT      -0.834000       15.9994           0
     23585 TIP3     3262     TIP3     H1       HT       0.417000       1.00800           0
     23586 TIP3     3262     TIP3     H2       HT       0.417000       1.00800           0
     23587 TIP3     3263     TIP3     OH2      OT      -0.834000       15.9994           0
     23588 TIP3     3263     TIP3     H1       HT       0.417000       1.00800           0
     23589 TIP3     3263     TIP3     H2       HT       0.417000       1.00800           0
     23590 TIP3     3264     TIP3     OH2      OT      -0.834000       15.9994           0
     23591 TIP3     3264     TIP3     H1       HT       0.417000       1.00800           0
     23592 TIP3     3264     TIP3     H2       HT       0.417000       1.00800           0
     23593 TIP3     3265     TIP3     OH2      OT      -0.834000       15.9994           0
     23594 TIP3     3265     TIP3     H1       HT       0.417000       1.00800           0
     23595 TIP3     3265     TIP3     H2       HT       0.417000       1.00800           0
     23596 TIP3     3266     TIP3     OH2      OT      -0.834000       15.9994           0
     23597 TIP3     3266     TIP3     H1       HT       0.417000       1.00800           0
     23598 TIP3     3266     TIP3     H2       HT       0.417000       1.00800           0
     23599 TIP3     3267     TIP3     OH2      OT      -0.834000       15.9994           0
     23600 TIP3     3267     TIP3     H1       HT       0.417000       1.00800           0
     23601 TIP3     3267     TIP3     H2       HT       0.417000       1.00800           0
     23602 TIP3     3268     TIP3     OH2      OT      -0.834000       15.9994           0
     23603 TIP3     3268     TIP3     H1       HT       0.417000       1.00800           0
     23604 TIP3     3268     TIP3     H2       HT       0.417000       1.00800           0
     23605 TIP3     3269     TIP3     OH2      OT      -0.834000       15.9994           0
     23606 TIP3     3269     TIP3     H1       HT       0.417000       1.00800           0
     23607 TIP3     3269     TIP3     H2       HT       0.417000       1.00800           0
     23608 TIP3     3270     TIP3     OH2      OT      -0.834000       15.9994           0
     23609 TIP3     3270     TIP3     H1       HT       0.417000       1.00800           0
     23610 TIP3     3270     TIP3     H2       HT       0.417000       1.00800           0
     23611 TIP3     3271     TIP3     OH2      OT      -0.834000       15.9994           0
     23612 TIP3     3271     TIP3     H1       HT       0.417000       1.00800           0
     23613 TIP3     3271     TIP3     H2       HT       0.417000       1.00800           0
     23614 TIP3     3272     TIP3     OH2      OT      -0.834000       15.9994           0
     23615 TIP3     3272     TIP3     H1       HT       0.417000       1.00800           0
     23616 TIP3     3272     TIP3     H2       HT       0.417000       1.00800           0
     23617 TIP3     3273     TIP3     OH2      OT      -0.834000       15.9994           0
     23618 TIP3     3273     TIP3     H1       HT       0.417000       1.00800           0
     23619 TIP3     3273     TIP3     H2       HT       0.417000       1.00800           0
     23620 TIP3     3274     TIP3     OH2      OT      -0.834000       15.9994           0
     23621 TIP3     3274     TIP3     H1       HT       0.417000       1.00800           0
     23622 TIP3     3274     TIP3     H2       HT       0.417000       1.00800           0
     23623 TIP3     3275     TIP3     OH2      OT      -0.834000       15.9994           0
     23624 TIP3     3275     TIP3     H1       HT       0.417000       1.00800           0
     23625 TIP3     3275     TIP3     H2       HT       0.417000       1.00800           0
     23626 TIP3     3276     TIP3     OH2      OT      -0.834000       15.9994           0
     23627 TIP3     3276     TIP3     H1       HT       0.417000       1.00800           0
     23628 TIP3     3276     TIP3     H2       HT       0.417000       1.00800           0
     23629 TIP3     3277     TIP3     OH2      OT      -0.834000       15.9994           0
     23630 TIP3     3277     TIP3     H1       HT       0.417000       1.00800           0
     23631 TIP3     3277     TIP3     H2       HT       0.417000       1.00800           0
     23632 TIP3     3278     TIP3     OH2      OT      -0.834000       15.9994           0
     23633 TIP3     3278     TIP3     H1       HT       0.417000       1.00800           0
     23634 TIP3     3278     TIP3     H2       HT       0.417000       1.00800           0
     23635 TIP3     3279     TIP3     OH2      OT      -0.834000       15.9994           0
     23636 TIP3     3279     TIP3     H1       HT       0.417000       1.00800           0
     23637 TIP3     3279     TIP3     H2       HT       0.417000       1.00800           0
     23638 TIP3     3280     TIP3     OH2      OT      -0.834000       15.9994           0
     23639 TIP3     3280     TIP3     H1       HT       0.417000       1.00800           0
     23640 TIP3     3280     TIP3     H2       HT       0.417000       1.00800           0
     23641 TIP3     3281     TIP3     OH2      OT      -0.834000       15.9994           0
     23642 TIP3     3281     TIP3     H1       HT       0.417000       1.00800           0
     23643 TIP3     3281     TIP3     H2       HT       0.417000       1.00800           0
     23644 TIP3     3282     TIP3     OH2      OT      -0.834000       15.9994           0
     23645 TIP3     3282     TIP3     H1       HT       0.417000       1.00800           0
     23646 TIP3     3282     TIP3     H2       HT       0.417000       1.00800           0
     23647 TIP3     3283     TIP3     OH2      OT      -0.834000       15.9994           0
     23648 TIP3     3283     TIP3     H1       HT       0.417000       1.00800           0
     23649 TIP3     3283     TIP3     H2       HT       0.417000       1.00800           0
     23650 TIP3     3284     TIP3     OH2      OT      -0.834000       15.9994           0
     23651 TIP3     3284     TIP3     H1       HT       0.417000       1.00800           0
     23652 TIP3     3284     TIP3     H2       HT       0.417000       1.00800           0
     23653 TIP3     3285     TIP3     OH2      OT      -0.834000       15.9994           0
     23654 TIP3     3285     TIP3     H1       HT       0.417000       1.00800           0
     23655 TIP3     3285     TIP3     H2       HT       0.417000       1.00800           0
     23656 TIP3     3286     TIP3     OH2      OT      -0.834000       15.9994           0
     23657 TIP3     3286     TIP3     H1       HT       0.417000       1.00800           0
     23658 TIP3     3286     TIP3     H2       HT       0.417000       1.00800           0
     23659 TIP3     3287     TIP3     OH2      OT      -0.834000       15.9994           0
     23660 TIP3     3287     TIP3     H1       HT       0.417000       1.00800           0
     23661 TIP3     3287     TIP3     H2       HT       0.417000       1.00800           0
     23662 TIP3     3288     TIP3     OH2      OT      -0.834000       15.9994           0
     23663 TIP3     3288     TIP3     H1       HT       0.417000       1.00800           0
     23664 TIP3     3288     TIP3     H2       HT       0.417000       1.00800           0
     23665 TIP3     3289     TIP3     OH2      OT      -0.834000       15.9994           0
     23666 TIP3     3289     TIP3     H1       HT       0.417000       1.00800           0
     23667 TIP3     3289     TIP3     H2       HT       0.417000       1.00800           0
     23668 TIP3     3290     TIP3     OH2      OT      -0.834000       15.9994           0
     23669 TIP3     3290     TIP3     H1       HT       0.417000       1.00800           0
     23670 TIP3     3290     TIP3     H2       HT       0.417000       1.00800           0
     23671 TIP3     3291     TIP3     OH2      OT      -0.834000       15.9994           0
     23672 TIP3     3291     TIP3     H1       HT       0.417000       1.00800           0
     23673 TIP3     3291     TIP3     H2       HT       0.417000       1.00800           0
     23674 TIP3     3292     TIP3     OH2      OT      -0.834000       15.9994           0
     23675 TIP3     3292     TIP3     H1       HT       0.417000       1.00800           0
     23676 TIP3     3292     TIP3     H2       HT       0.417000       1.00800           0
     23677 TIP3     3293     TIP3     OH2      OT      -0.834000       15.9994           0
     23678 TIP3     3293     TIP3     H1       HT       0.417000       1.00800           0
     23679 TIP3     3293     TIP3     H2       HT       0.417000       1.00800           0
     23680 TIP3     3294     TIP3     OH2      OT      -0.834000       15.9994           0
     23681 TIP3     3294     TIP3     H1       HT       0.417000       1.00800           0
     23682 TIP3     3294     TIP3     H2       HT       0.417000       1.00800           0
     23683 TIP3     3295     TIP3     OH2      OT      -0.834000       15.9994           0
     23684 TIP3     3295     TIP3     H1       HT       0.417000       1.00800           0
     23685 TIP3     3295     TIP3     H2       HT       0.417000       1.00800           0
     23686 TIP3     3296     TIP3     OH2      OT      -0.834000       15.9994           0
     23687 TIP3     3296     TIP3     H1       HT       0.417000       1.00800           0
     23688 TIP3     3296     TIP3     H2       HT       0.417000       1.00800           0
     23689 TIP3     3297     TIP3     OH2      OT      -0.834000       15.9994           0
     23690 TIP3     3297     TIP3     H1       HT       0.417000       1.00800           0
     23691 TIP3     3297     TIP3     H2       HT       0.417000       1.00800           0
     23692 TIP3     3298     TIP3     OH2      OT      -0.834000       15.9994           0
     23693 TIP3     3298     TIP3     H1       HT       0.417000       1.00800           0
     23694 TIP3     3298     TIP3     H2       HT       0.417000       1.00800           0
     23695 TIP3     3299     TIP3     OH2      OT      -0.834000       15.9994           0
     23696 TIP3     3299     TIP3     H1       HT       0.417000       1.00800           0
     23697 TIP3     3299     TIP3     H2       HT       0.417000       1.00800           0
     23698 TIP3     3300     TIP3     OH2      OT      -0.834000       15.9994           0
     23699 TIP3     3300     TIP3     H1       HT       0.417000       1.00800           0
     23700 TIP3     3300     TIP3     H2       HT       0.417000       1.00800           0
     23701 TIP3     3301     TIP3     OH2      OT      -0.834000       15.9994           0
     23702 TIP3     3301     TIP3     H1       HT       0.417000       1.00800           0
     23703 TIP3     3301     TIP3     H2       HT       0.417000       1.00800           0
     23704 TIP3     3302     TIP3     OH2      OT      -0.834000       15.9994           0
     23705 TIP3     3302     TIP3     H1       HT       0.417000       1.00800           0
     23706 TIP3     3302     TIP3     H2       HT       0.417000       1.00800           0
     23707 TIP3     3303     TIP3     OH2      OT      -0.834000       15.9994           0
     23708 TIP3     3303     TIP3     H1       HT       0.417000       1.00800           0
     23709 TIP3     3303     TIP3     H2       HT       0.417000       1.00800           0
     23710 TIP3     3304     TIP3     OH2      OT      -0.834000       15.9994           0
     23711 TIP3     3304     TIP3     H1       HT       0.417000       1.00800           0
     23712 TIP3     3304     TIP3     H2       HT       0.417000       1.00800           0
     23713 TIP3     3305     TIP3     OH2      OT      -0.834000       15.9994           0
     23714 TIP3     3305     TIP3     H1       HT       0.417000       1.00800           0
     23715 TIP3     3305     TIP3     H2       HT       0.417000       1.00800           0
     23716 TIP3     3306     TIP3     OH2      OT      -0.834000       15.9994           0
     23717 TIP3     3306     TIP3     H1       HT       0.417000       1.00800           0
     23718 TIP3     3306     TIP3     H2       HT       0.417000       1.00800           0
     23719 TIP3     3307     TIP3     OH2      OT      -0.834000       15.9994           0
     23720 TIP3     3307     TIP3     H1       HT       0.417000       1.00800           0
     23721 TIP3     3307     TIP3     H2       HT       0.417000       1.00800           0
     23722 TIP3     3308     TIP3     OH2      OT      -0.834000       15.9994           0
     23723 TIP3     3308     TIP3     H1       HT       0.417000       1.00800           0
     23724 TIP3     3308     TIP3     H2       HT       0.417000       1.00800           0
     23725 TIP3     3309     TIP3     OH2      OT      -0.834000       15.9994           0
     23726 TIP3     3309     TIP3     H1       HT       0.417000       1.00800           0
     23727 TIP3     3309     TIP3     H2       HT       0.417000       1.00800           0
     23728 TIP3     3310     TIP3     OH2      OT      -0.834000       15.9994           0
     23729 TIP3     3310     TIP3     H1       HT       0.417000       1.00800           0
     23730 TIP3     3310     TIP3     H2       HT       0.417000       1.00800           0
     23731 TIP3     3311     TIP3     OH2      OT      -0.834000       15.9994           0
     23732 TIP3     3311     TIP3     H1       HT       0.417000       1.00800           0
     23733 TIP3     3311     TIP3     H2       HT       0.417000       1.00800           0
     23734 TIP3     3312     TIP3     OH2      OT      -0.834000       15.9994           0
     23735 TIP3     3312     TIP3     H1       HT       0.417000       1.00800           0
     23736 TIP3     3312     TIP3     H2       HT       0.417000       1.00800           0
     23737 TIP3     3313     TIP3     OH2      OT      -0.834000       15.9994           0
     23738 TIP3     3313     TIP3     H1       HT       0.417000       1.00800           0
     23739 TIP3     3313     TIP3     H2       HT       0.417000       1.00800           0
     23740 TIP3     3314     TIP3     OH2      OT      -0.834000       15.9994           0
     23741 TIP3     3314     TIP3     H1       HT       0.417000       1.00800           0
     23742 TIP3     3314     TIP3     H2       HT       0.417000       1.00800           0
     23743 TIP3     3315     TIP3     OH2      OT      -0.834000       15.9994           0
     23744 TIP3     3315     TIP3     H1       HT       0.417000       1.00800           0
     23745 TIP3     3315     TIP3     H2       HT       0.417000       1.00800           0
     23746 TIP3     3316     TIP3     OH2      OT      -0.834000       15.9994           0
     23747 TIP3     3316     TIP3     H1       HT       0.417000       1.00800           0
     23748 TIP3     3316     TIP3     H2       HT       0.417000       1.00800           0
     23749 TIP3     3317     TIP3     OH2      OT      -0.834000       15.9994           0
     23750 TIP3     3317     TIP3     H1       HT       0.417000       1.00800           0
     23751 TIP3     3317     TIP3     H2       HT       0.417000       1.00800           0
     23752 TIP3     3318     TIP3     OH2      OT      -0.834000       15.9994           0
     23753 TIP3     3318     TIP3     H1       HT       0.417000       1.00800           0
     23754 TIP3     3318     TIP3     H2       HT       0.417000       1.00800           0
     23755 TIP3     3319     TIP3     OH2      OT      -0.834000       15.9994           0
     23756 TIP3     3319     TIP3     H1       HT       0.417000       1.00800           0
     23757 TIP3     3319     TIP3     H2       HT       0.417000       1.00800           0
     23758 TIP3     3320     TIP3     OH2      OT      -0.834000       15.9994           0
     23759 TIP3     3320     TIP3     H1       HT       0.417000       1.00800           0
     23760 TIP3     3320     TIP3     H2       HT       0.417000       1.00800           0
     23761 TIP3     3321     TIP3     OH2      OT      -0.834000       15.9994           0
     23762 TIP3     3321     TIP3     H1       HT       0.417000       1.00800           0
     23763 TIP3     3321     TIP3     H2       HT       0.417000       1.00800           0
     23764 TIP3     3322     TIP3     OH2      OT      -0.834000       15.9994           0
     23765 TIP3     3322     TIP3     H1       HT       0.417000       1.00800           0
     23766 TIP3     3322     TIP3     H2       HT       0.417000       1.00800           0
     23767 TIP3     3323     TIP3     OH2      OT      -0.834000       15.9994           0
     23768 TIP3     3323     TIP3     H1       HT       0.417000       1.00800           0
     23769 TIP3     3323     TIP3     H2       HT       0.417000       1.00800           0
     23770 TIP3     3324     TIP3     OH2      OT      -0.834000       15.9994           0
     23771 TIP3     3324     TIP3     H1       HT       0.417000       1.00800           0
     23772 TIP3     3324     TIP3     H2       HT       0.417000       1.00800           0
     23773 TIP3     3325     TIP3     OH2      OT      -0.834000       15.9994           0
     23774 TIP3     3325     TIP3     H1       HT       0.417000       1.00800           0
     23775 TIP3     3325     TIP3     H2       HT       0.417000       1.00800           0
     23776 TIP3     3326     TIP3     OH2      OT      -0.834000       15.9994           0
     23777 TIP3     3326     TIP3     H1       HT       0.417000       1.00800           0
     23778 TIP3     3326     TIP3     H2       HT       0.417000       1.00800           0
     23779 TIP3     3327     TIP3     OH2      OT      -0.834000       15.9994           0
     23780 TIP3     3327     TIP3     H1       HT       0.417000       1.00800           0
     23781 TIP3     3327     TIP3     H2       HT       0.417000       1.00800           0
     23782 TIP3     3328     TIP3     OH2      OT      -0.834000       15.9994           0
     23783 TIP3     3328     TIP3     H1       HT       0.417000       1.00800           0
     23784 TIP3     3328     TIP3     H2       HT       0.417000       1.00800           0
     23785 TIP3     3329     TIP3     OH2      OT      -0.834000       15.9994           0
     23786 TIP3     3329     TIP3     H1       HT       0.417000       1.00800           0
     23787 TIP3     3329     TIP3     H2       HT       0.417000       1.00800           0
     23788 TIP3     3330     TIP3     OH2      OT      -0.834000       15.9994           0
     23789 TIP3     3330     TIP3     H1       HT       0.417000       1.00800           0
     23790 TIP3     3330     TIP3     H2       HT       0.417000       1.00800           0
     23791 TIP3     3331     TIP3     OH2      OT      -0.834000       15.9994           0
     23792 TIP3     3331     TIP3     H1       HT       0.417000       1.00800           0
     23793 TIP3     3331     TIP3     H2       HT       0.417000       1.00800           0
     23794 TIP3     3332     TIP3     OH2      OT      -0.834000       15.9994           0
     23795 TIP3     3332     TIP3     H1       HT       0.417000       1.00800           0
     23796 TIP3     3332     TIP3     H2       HT       0.417000       1.00800           0
     23797 TIP3     3333     TIP3     OH2      OT      -0.834000       15.9994           0
     23798 TIP3     3333     TIP3     H1       HT       0.417000       1.00800           0
     23799 TIP3     3333     TIP3     H2       HT       0.417000       1.00800           0
     23800 TIP3     3334     TIP3     OH2      OT      -0.834000       15.9994           0
     23801 TIP3     3334     TIP3     H1       HT       0.417000       1.00800           0
     23802 TIP3     3334     TIP3     H2       HT       0.417000       1.00800           0
     23803 TIP3     3335     TIP3     OH2      OT      -0.834000       15.9994           0
     23804 TIP3     3335     TIP3     H1       HT       0.417000       1.00800           0
     23805 TIP3     3335     TIP3     H2       HT       0.417000       1.00800           0
     23806 TIP3     3336     TIP3     OH2      OT      -0.834000       15.9994           0
     23807 TIP3     3336     TIP3     H1       HT       0.417000       1.00800           0
     23808 TIP3     3336     TIP3     H2       HT       0.417000       1.00800           0
     23809 TIP3     3337     TIP3     OH2      OT      -0.834000       15.9994           0
     23810 TIP3     3337     TIP3     H1       HT       0.417000       1.00800           0
     23811 TIP3     3337     TIP3     H2       HT       0.417000       1.00800           0
     23812 TIP3     3338     TIP3     OH2      OT      -0.834000       15.9994           0
     23813 TIP3     3338     TIP3     H1       HT       0.417000       1.00800           0
     23814 TIP3     3338     TIP3     H2       HT       0.417000       1.00800           0
     23815 TIP3     3339     TIP3     OH2      OT      -0.834000       15.9994           0
     23816 TIP3     3339     TIP3     H1       HT       0.417000       1.00800           0
     23817 TIP3     3339     TIP3     H2       HT       0.417000       1.00800           0
     23818 TIP3     3340     TIP3     OH2      OT      -0.834000       15.9994           0
     23819 TIP3     3340     TIP3     H1       HT       0.417000       1.00800           0
     23820 TIP3     3340     TIP3     H2       HT       0.417000       1.00800           0
     23821 TIP3     3341     TIP3     OH2      OT      -0.834000       15.9994           0
     23822 TIP3     3341     TIP3     H1       HT       0.417000       1.00800           0
     23823 TIP3     3341     TIP3     H2       HT       0.417000       1.00800           0
     23824 TIP3     3342     TIP3     OH2      OT      -0.834000       15.9994           0
     23825 TIP3     3342     TIP3     H1       HT       0.417000       1.00800           0
     23826 TIP3     3342     TIP3     H2       HT       0.417000       1.00800           0
     23827 TIP3     3343     TIP3     OH2      OT      -0.834000       15.9994           0
     23828 TIP3     3343     TIP3     H1       HT       0.417000       1.00800           0
     23829 TIP3     3343     TIP3     H2       HT       0.417000       1.00800           0
     23830 TIP3     3344     TIP3     OH2      OT      -0.834000       15.9994           0
     23831 TIP3     3344     TIP3     H1       HT       0.417000       1.00800           0
     23832 TIP3     3344     TIP3     H2       HT       0.417000       1.00800           0
     23833 TIP3     3345     TIP3     OH2      OT      -0.834000       15.9994           0
     23834 TIP3     3345     TIP3     H1       HT       0.417000       1.00800           0
     23835 TIP3     3345     TIP3     H2       HT       0.417000       1.00800           0
     23836 TIP3     3346     TIP3     OH2      OT      -0.834000       15.9994           0
     23837 TIP3     3346     TIP3     H1       HT       0.417000       1.00800           0
     23838 TIP3     3346     TIP3     H2       HT       0.417000       1.00800           0
     23839 TIP3     3347     TIP3     OH2      OT      -0.834000       15.9994           0
     23840 TIP3     3347     TIP3     H1       HT       0.417000       1.00800           0
     23841 TIP3     3347     TIP3     H2       HT       0.417000       1.00800           0
     23842 TIP3     3348     TIP3     OH2      OT      -0.834000       15.9994           0
     23843 TIP3     3348     TIP3     H1       HT       0.417000       1.00800           0
     23844 TIP3     3348     TIP3     H2       HT       0.417000       1.00800           0
     23845 TIP3     3349     TIP3     OH2      OT      -0.834000       15.9994           0
     23846 TIP3     3349     TIP3     H1       HT       0.417000       1.00800           0
     23847 TIP3     3349     TIP3     H2       HT       0.417000       1.00800           0
     23848 TIP3     3350     TIP3     OH2      OT      -0.834000       15.9994           0
     23849 TIP3     3350     TIP3     H1       HT       0.417000       1.00800           0
     23850 TIP3     3350     TIP3     H2       HT       0.417000       1.00800           0
     23851 TIP3     3351     TIP3     OH2      OT      -0.834000       15.9994           0
     23852 TIP3     3351     TIP3     H1       HT       0.417000       1.00800           0
     23853 TIP3     3351     TIP3     H2       HT       0.417000       1.00800           0
     23854 TIP3     3352     TIP3     OH2      OT      -0.834000       15.9994           0
     23855 TIP3     3352     TIP3     H1       HT       0.417000       1.00800           0
     23856 TIP3     3352     TIP3     H2       HT       0.417000       1.00800           0
     23857 TIP3     3353     TIP3     OH2      OT      -0.834000       15.9994           0
     23858 TIP3     3353     TIP3     H1       HT       0.417000       1.00800           0
     23859 TIP3     3353     TIP3     H2       HT       0.417000       1.00800           0
     23860 TIP3     3354     TIP3     OH2      OT      -0.834000       15.9994           0
     23861 TIP3     3354     TIP3     H1       HT       0.417000       1.00800           0
     23862 TIP3     3354     TIP3     H2       HT       0.417000       1.00800           0
     23863 TIP3     3355     TIP3     OH2      OT      -0.834000       15.9994           0
     23864 TIP3     3355     TIP3     H1       HT       0.417000       1.00800           0
     23865 TIP3     3355     TIP3     H2       HT       0.417000       1.00800           0
     23866 TIP3     3356     TIP3     OH2      OT      -0.834000       15.9994           0
     23867 TIP3     3356     TIP3     H1       HT       0.417000       1.00800           0
     23868 TIP3     3356     TIP3     H2       HT       0.417000       1.00800           0
     23869 TIP3     3357     TIP3     OH2      OT      -0.834000       15.9994           0
     23870 TIP3     3357     TIP3     H1       HT       0.417000       1.00800           0
     23871 TIP3     3357     TIP3     H2       HT       0.417000       1.00800           0
     23872 TIP3     3358     TIP3     OH2      OT      -0.834000       15.9994           0
     23873 TIP3     3358     TIP3     H1       HT       0.417000       1.00800           0
     23874 TIP3     3358     TIP3     H2       HT       0.417000       1.00800           0
     23875 TIP3     3359     TIP3     OH2      OT      -0.834000       15.9994           0
     23876 TIP3     3359     TIP3     H1       HT       0.417000       1.00800           0
     23877 TIP3     3359     TIP3     H2       HT       0.417000       1.00800           0
     23878 TIP3     3360     TIP3     OH2      OT      -0.834000       15.9994           0
     23879 TIP3     3360     TIP3     H1       HT       0.417000       1.00800           0
     23880 TIP3     3360     TIP3     H2       HT       0.417000       1.00800           0
     23881 TIP3     3361     TIP3     OH2      OT      -0.834000       15.9994           0
     23882 TIP3     3361     TIP3     H1       HT       0.417000       1.00800           0
     23883 TIP3     3361     TIP3     H2       HT       0.417000       1.00800           0
     23884 TIP3     3362     TIP3     OH2      OT      -0.834000       15.9994           0
     23885 TIP3     3362     TIP3     H1       HT       0.417000       1.00800           0
     23886 TIP3     3362     TIP3     H2       HT       0.417000       1.00800           0
     23887 TIP3     3363     TIP3     OH2      OT      -0.834000       15.9994           0
     23888 TIP3     3363     TIP3     H1       HT       0.417000       1.00800           0
     23889 TIP3     3363     TIP3     H2       HT       0.417000       1.00800           0
     23890 TIP3     3364     TIP3     OH2      OT      -0.834000       15.9994           0
     23891 TIP3     3364     TIP3     H1       HT       0.417000       1.00800           0
     23892 TIP3     3364     TIP3     H2       HT       0.417000       1.00800           0
     23893 TIP3     3365     TIP3     OH2      OT      -0.834000       15.9994           0
     23894 TIP3     3365     TIP3     H1       HT       0.417000       1.00800           0
     23895 TIP3     3365     TIP3     H2       HT       0.417000       1.00800           0
     23896 TIP3     3366     TIP3     OH2      OT      -0.834000       15.9994           0
     23897 TIP3     3366     TIP3     H1       HT       0.417000       1.00800           0
     23898 TIP3     3366     TIP3     H2       HT       0.417000       1.00800           0
     23899 TIP3     3367     TIP3     OH2      OT      -0.834000       15.9994           0
     23900 TIP3     3367     TIP3     H1       HT       0.417000       1.00800           0
     23901 TIP3     3367     TIP3     H2       HT       0.417000       1.00800           0
     23902 TIP3     3368     TIP3     OH2      OT      -0.834000       15.9994           0
     23903 TIP3     3368     TIP3     H1       HT       0.417000       1.00800           0
     23904 TIP3     3368     TIP3     H2       HT       0.417000       1.00800           0
     23905 TIP3     3369     TIP3     OH2      OT      -0.834000       15.9994           0
     23906 TIP3     3369     TIP3     H1       HT       0.417000       1.00800           0
     23907 TIP3     3369     TIP3     H2       HT       0.417000       1.00800           0
     23908 TIP3     3370     TIP3     OH2      OT      -0.834000       15.9994           0
     23909 TIP3     3370     TIP3     H1       HT       0.417000       1.00800           0
     23910 TIP3     3370     TIP3     H2       HT       0.417000       1.00800           0
     23911 TIP3     3371     TIP3     OH2      OT      -0.834000       15.9994           0
     23912 TIP3     3371     TIP3     H1       HT       0.417000       1.00800           0
     23913 TIP3     3371     TIP3     H2       HT       0.417000       1.00800           0
     23914 TIP3     3372     TIP3     OH2      OT      -0.834000       15.9994           0
     23915 TIP3     3372     TIP3     H1       HT       0.417000       1.00800           0
     23916 TIP3     3372     TIP3     H2       HT       0.417000       1.00800           0
     23917 TIP3     3373     TIP3     OH2      OT      -0.834000       15.9994           0
     23918 TIP3     3373     TIP3     H1       HT       0.417000       1.00800           0
     23919 TIP3     3373     TIP3     H2       HT       0.417000       1.00800           0
     23920 TIP3     3374     TIP3     OH2      OT      -0.834000       15.9994           0
     23921 TIP3     3374     TIP3     H1       HT       0.417000       1.00800           0
     23922 TIP3     3374     TIP3     H2       HT       0.417000       1.00800           0
     23923 TIP3     3375     TIP3     OH2      OT      -0.834000       15.9994           0
     23924 TIP3     3375     TIP3     H1       HT       0.417000       1.00800           0
     23925 TIP3     3375     TIP3     H2       HT       0.417000       1.00800           0
     23926 TIP3     3376     TIP3     OH2      OT      -0.834000       15.9994           0
     23927 TIP3     3376     TIP3     H1       HT       0.417000       1.00800           0
     23928 TIP3     3376     TIP3     H2       HT       0.417000       1.00800           0
     23929 TIP3     3377     TIP3     OH2      OT      -0.834000       15.9994           0
     23930 TIP3     3377     TIP3     H1       HT       0.417000       1.00800           0
     23931 TIP3     3377     TIP3     H2       HT       0.417000       1.00800           0
     23932 TIP3     3378     TIP3     OH2      OT      -0.834000       15.9994           0
     23933 TIP3     3378     TIP3     H1       HT       0.417000       1.00800           0
     23934 TIP3     3378     TIP3     H2       HT       0.417000       1.00800           0
     23935 TIP3     3379     TIP3     OH2      OT      -0.834000       15.9994           0
     23936 TIP3     3379     TIP3     H1       HT       0.417000       1.00800           0
     23937 TIP3     3379     TIP3     H2       HT       0.417000       1.00800           0
     23938 TIP3     3380     TIP3     OH2      OT      -0.834000       15.9994           0
     23939 TIP3     3380     TIP3     H1       HT       0.417000       1.00800           0
     23940 TIP3     3380     TIP3     H2       HT       0.417000       1.00800           0
     23941 TIP3     3381     TIP3     OH2      OT      -0.834000       15.9994           0
     23942 TIP3     3381     TIP3     H1       HT       0.417000       1.00800           0
     23943 TIP3     3381     TIP3     H2       HT       0.417000       1.00800           0
     23944 TIP3     3382     TIP3     OH2      OT      -0.834000       15.9994           0
     23945 TIP3     3382     TIP3     H1       HT       0.417000       1.00800           0
     23946 TIP3     3382     TIP3     H2       HT       0.417000       1.00800           0
     23947 TIP3     3383     TIP3     OH2      OT      -0.834000       15.9994           0
     23948 TIP3     3383     TIP3     H1       HT       0.417000       1.00800           0
     23949 TIP3     3383     TIP3     H2       HT       0.417000       1.00800           0
     23950 TIP3     3384     TIP3     OH2      OT      -0.834000       15.9994           0
     23951 TIP3     3384     TIP3     H1       HT       0.417000       1.00800           0
     23952 TIP3     3384     TIP3     H2       HT       0.417000       1.00800           0
     23953 TIP3     3385     TIP3     OH2      OT      -0.834000       15.9994           0
     23954 TIP3     3385     TIP3     H1       HT       0.417000       1.00800           0
     23955 TIP3     3385     TIP3     H2       HT       0.417000       1.00800           0
     23956 TIP3     3386     TIP3     OH2      OT      -0.834000       15.9994           0
     23957 TIP3     3386     TIP3     H1       HT       0.417000       1.00800           0
     23958 TIP3     3386     TIP3     H2       HT       0.417000       1.00800           0
     23959 TIP3     3387     TIP3     OH2      OT      -0.834000       15.9994           0
     23960 TIP3     3387     TIP3     H1       HT       0.417000       1.00800           0
     23961 TIP3     3387     TIP3     H2       HT       0.417000       1.00800           0
     23962 TIP3     3388     TIP3     OH2      OT      -0.834000       15.9994           0
     23963 TIP3     3388     TIP3     H1       HT       0.417000       1.00800           0
     23964 TIP3     3388     TIP3     H2       HT       0.417000       1.00800           0
     23965 TIP3     3389     TIP3     OH2      OT      -0.834000       15.9994           0
     23966 TIP3     3389     TIP3     H1       HT       0.417000       1.00800           0
     23967 TIP3     3389     TIP3     H2       HT       0.417000       1.00800           0
     23968 TIP3     3390     TIP3     OH2      OT      -0.834000       15.9994           0
     23969 TIP3     3390     TIP3     H1       HT       0.417000       1.00800           0
     23970 TIP3     3390     TIP3     H2       HT       0.417000       1.00800           0
     23971 TIP3     3391     TIP3     OH2      OT      -0.834000       15.9994           0
     23972 TIP3     3391     TIP3     H1       HT       0.417000       1.00800           0
     23973 TIP3     3391     TIP3     H2       HT       0.417000       1.00800           0
     23974 TIP3     3392     TIP3     OH2      OT      -0.834000       15.9994           0
     23975 TIP3     3392     TIP3     H1       HT       0.417000       1.00800           0
     23976 TIP3     3392     TIP3     H2       HT       0.417000       1.00800           0
     23977 TIP3     3393     TIP3     OH2      OT      -0.834000       15.9994           0
     23978 TIP3     3393     TIP3     H1       HT       0.417000       1.00800           0
     23979 TIP3     3393     TIP3     H2       HT       0.417000       1.00800           0
     23980 TIP3     3394     TIP3     OH2      OT      -0.834000       15.9994           0
     23981 TIP3     3394     TIP3     H1       HT       0.417000       1.00800           0
     23982 TIP3     3394     TIP3     H2       HT       0.417000       1.00800           0
     23983 TIP3     3395     TIP3     OH2      OT      -0.834000       15.9994           0
     23984 TIP3     3395     TIP3     H1       HT       0.417000       1.00800           0
     23985 TIP3     3395     TIP3     H2       HT       0.417000       1.00800           0
     23986 TIP3     3396     TIP3     OH2      OT      -0.834000       15.9994           0
     23987 TIP3     3396     TIP3     H1       HT       0.417000       1.00800           0
     23988 TIP3     3396     TIP3     H2       HT       0.417000       1.00800           0
     23989 TIP3     3397     TIP3     OH2      OT      -0.834000       15.9994           0
     23990 TIP3     3397     TIP3     H1       HT       0.417000       1.00800           0
     23991 TIP3     3397     TIP3     H2       HT       0.417000       1.00800           0
     23992 TIP3     3398     TIP3     OH2      OT      -0.834000       15.9994           0
     23993 TIP3     3398     TIP3     H1       HT       0.417000       1.00800           0
     23994 TIP3     3398     TIP3     H2       HT       0.417000       1.00800           0
     23995 TIP3     3399     TIP3     OH2      OT      -0.834000       15.9994           0
     23996 TIP3     3399     TIP3     H1       HT       0.417000       1.00800           0
     23997 TIP3     3399     TIP3     H2       HT       0.417000       1.00800           0
     23998 TIP3     3400     TIP3     OH2      OT      -0.834000       15.9994           0
     23999 TIP3     3400     TIP3     H1       HT       0.417000       1.00800           0
     24000 TIP3     3400     TIP3     H2       HT       0.417000       1.00800           0
     24001 TIP3     3401     TIP3     OH2      OT      -0.834000       15.9994           0
     24002 TIP3     3401     TIP3     H1       HT       0.417000       1.00800           0
     24003 TIP3     3401     TIP3     H2       HT       0.417000       1.00800           0
     24004 TIP3     3402     TIP3     OH2      OT      -0.834000       15.9994           0
     24005 TIP3     3402     TIP3     H1       HT       0.417000       1.00800           0
     24006 TIP3     3402     TIP3     H2       HT       0.417000       1.00800           0
     24007 TIP3     3403     TIP3     OH2      OT      -0.834000       15.9994           0
     24008 TIP3     3403     TIP3     H1       HT       0.417000       1.00800           0
     24009 TIP3     3403     TIP3     H2       HT       0.417000       1.00800           0
     24010 TIP3     3404     TIP3     OH2      OT      -0.834000       15.9994           0
     24011 TIP3     3404     TIP3     H1       HT       0.417000       1.00800           0
     24012 TIP3     3404     TIP3     H2       HT       0.417000       1.00800           0
     24013 TIP3     3405     TIP3     OH2      OT      -0.834000       15.9994           0
     24014 TIP3     3405     TIP3     H1       HT       0.417000       1.00800           0
     24015 TIP3     3405     TIP3     H2       HT       0.417000       1.00800           0
     24016 TIP3     3406     TIP3     OH2      OT      -0.834000       15.9994           0
     24017 TIP3     3406     TIP3     H1       HT       0.417000       1.00800           0
     24018 TIP3     3406     TIP3     H2       HT       0.417000       1.00800           0
     24019 TIP3     3407     TIP3     OH2      OT      -0.834000       15.9994           0
     24020 TIP3     3407     TIP3     H1       HT       0.417000       1.00800           0
     24021 TIP3     3407     TIP3     H2       HT       0.417000       1.00800           0
     24022 TIP3     3408     TIP3     OH2      OT      -0.834000       15.9994           0
     24023 TIP3     3408     TIP3     H1       HT       0.417000       1.00800           0
     24024 TIP3     3408     TIP3     H2       HT       0.417000       1.00800           0
     24025 TIP3     3409     TIP3     OH2      OT      -0.834000       15.9994           0
     24026 TIP3     3409     TIP3     H1       HT       0.417000       1.00800           0
     24027 TIP3     3409     TIP3     H2       HT       0.417000       1.00800           0
     24028 TIP3     3410     TIP3     OH2      OT      -0.834000       15.9994           0
     24029 TIP3     3410     TIP3     H1       HT       0.417000       1.00800           0
     24030 TIP3     3410     TIP3     H2       HT       0.417000       1.00800           0
     24031 TIP3     3411     TIP3     OH2      OT      -0.834000       15.9994           0
     24032 TIP3     3411     TIP3     H1       HT       0.417000       1.00800           0
     24033 TIP3     3411     TIP3     H2       HT       0.417000       1.00800           0
     24034 TIP3     3412     TIP3     OH2      OT      -0.834000       15.9994           0
     24035 TIP3     3412     TIP3     H1       HT       0.417000       1.00800           0
     24036 TIP3     3412     TIP3     H2       HT       0.417000       1.00800           0
     24037 TIP3     3413     TIP3     OH2      OT      -0.834000       15.9994           0
     24038 TIP3     3413     TIP3     H1       HT       0.417000       1.00800           0
     24039 TIP3     3413     TIP3     H2       HT       0.417000       1.00800           0
     24040 TIP3     3414     TIP3     OH2      OT      -0.834000       15.9994           0
     24041 TIP3     3414     TIP3     H1       HT       0.417000       1.00800           0
     24042 TIP3     3414     TIP3     H2       HT       0.417000       1.00800           0
     24043 TIP3     3415     TIP3     OH2      OT      -0.834000       15.9994           0
     24044 TIP3     3415     TIP3     H1       HT       0.417000       1.00800           0
     24045 TIP3     3415     TIP3     H2       HT       0.417000       1.00800           0
     24046 TIP3     3416     TIP3     OH2      OT      -0.834000       15.9994           0
     24047 TIP3     3416     TIP3     H1       HT       0.417000       1.00800           0
     24048 TIP3     3416     TIP3     H2       HT       0.417000       1.00800           0
     24049 TIP3     3417     TIP3     OH2      OT      -0.834000       15.9994           0
     24050 TIP3     3417     TIP3     H1       HT       0.417000       1.00800           0
     24051 TIP3     3417     TIP3     H2       HT       0.417000       1.00800           0
     24052 TIP3     3418     TIP3     OH2      OT      -0.834000       15.9994           0
     24053 TIP3     3418     TIP3     H1       HT       0.417000       1.00800           0
     24054 TIP3     3418     TIP3     H2       HT       0.417000       1.00800           0
     24055 TIP3     3419     TIP3     OH2      OT      -0.834000       15.9994           0
     24056 TIP3     3419     TIP3     H1       HT       0.417000       1.00800           0
     24057 TIP3     3419     TIP3     H2       HT       0.417000       1.00800           0
     24058 TIP3     3420     TIP3     OH2      OT      -0.834000       15.9994           0
     24059 TIP3     3420     TIP3     H1       HT       0.417000       1.00800           0
     24060 TIP3     3420     TIP3     H2       HT       0.417000       1.00800           0
     24061 TIP3     3421     TIP3     OH2      OT      -0.834000       15.9994           0
     24062 TIP3     3421     TIP3     H1       HT       0.417000       1.00800           0
     24063 TIP3     3421     TIP3     H2       HT       0.417000       1.00800           0
     24064 TIP3     3422     TIP3     OH2      OT      -0.834000       15.9994           0
     24065 TIP3     3422     TIP3     H1       HT       0.417000       1.00800           0
     24066 TIP3     3422     TIP3     H2       HT       0.417000       1.00800           0
     24067 TIP3     3423     TIP3     OH2      OT      -0.834000       15.9994           0
     24068 TIP3     3423     TIP3     H1       HT       0.417000       1.00800           0
     24069 TIP3     3423     TIP3     H2       HT       0.417000       1.00800           0
     24070 TIP3     3424     TIP3     OH2      OT      -0.834000       15.9994           0
     24071 TIP3     3424     TIP3     H1       HT       0.417000       1.00800           0
     24072 TIP3     3424     TIP3     H2       HT       0.417000       1.00800           0
     24073 TIP3     3425     TIP3     OH2      OT      -0.834000       15.9994           0
     24074 TIP3     3425     TIP3     H1       HT       0.417000       1.00800           0
     24075 TIP3     3425     TIP3     H2       HT       0.417000       1.00800           0
     24076 TIP3     3426     TIP3     OH2      OT      -0.834000       15.9994           0
     24077 TIP3     3426     TIP3     H1       HT       0.417000       1.00800           0
     24078 TIP3     3426     TIP3     H2       HT       0.417000       1.00800           0
     24079 TIP3     3427     TIP3     OH2      OT      -0.834000       15.9994           0
     24080 TIP3     3427     TIP3     H1       HT       0.417000       1.00800           0
     24081 TIP3     3427     TIP3     H2       HT       0.417000       1.00800           0
     24082 TIP3     3428     TIP3     OH2      OT      -0.834000       15.9994           0
     24083 TIP3     3428     TIP3     H1       HT       0.417000       1.00800           0
     24084 TIP3     3428     TIP3     H2       HT       0.417000       1.00800           0
     24085 TIP3     3429     TIP3     OH2      OT      -0.834000       15.9994           0
     24086 TIP3     3429     TIP3     H1       HT       0.417000       1.00800           0
     24087 TIP3     3429     TIP3     H2       HT       0.417000       1.00800           0
     24088 TIP3     3430     TIP3     OH2      OT      -0.834000       15.9994           0
     24089 TIP3     3430     TIP3     H1       HT       0.417000       1.00800           0
     24090 TIP3     3430     TIP3     H2       HT       0.417000       1.00800           0
     24091 TIP3     3431     TIP3     OH2      OT      -0.834000       15.9994           0
     24092 TIP3     3431     TIP3     H1       HT       0.417000       1.00800           0
     24093 TIP3     3431     TIP3     H2       HT       0.417000       1.00800           0
     24094 TIP3     3432     TIP3     OH2      OT      -0.834000       15.9994           0
     24095 TIP3     3432     TIP3     H1       HT       0.417000       1.00800           0
     24096 TIP3     3432     TIP3     H2       HT       0.417000       1.00800           0
     24097 TIP3     3433     TIP3     OH2      OT      -0.834000       15.9994           0
     24098 TIP3     3433     TIP3     H1       HT       0.417000       1.00800           0
     24099 TIP3     3433     TIP3     H2       HT       0.417000       1.00800           0
     24100 TIP3     3434     TIP3     OH2      OT      -0.834000       15.9994           0
     24101 TIP3     3434     TIP3     H1       HT       0.417000       1.00800           0
     24102 TIP3     3434     TIP3     H2       HT       0.417000       1.00800           0
     24103 TIP3     3435     TIP3     OH2      OT      -0.834000       15.9994           0
     24104 TIP3     3435     TIP3     H1       HT       0.417000       1.00800           0
     24105 TIP3     3435     TIP3     H2       HT       0.417000       1.00800           0
     24106 TIP3     3436     TIP3     OH2      OT      -0.834000       15.9994           0
     24107 TIP3     3436     TIP3     H1       HT       0.417000       1.00800           0
     24108 TIP3     3436     TIP3     H2       HT       0.417000       1.00800           0
     24109 TIP3     3437     TIP3     OH2      OT      -0.834000       15.9994           0
     24110 TIP3     3437     TIP3     H1       HT       0.417000       1.00800           0
     24111 TIP3     3437     TIP3     H2       HT       0.417000       1.00800           0
     24112 TIP3     3438     TIP3     OH2      OT      -0.834000       15.9994           0
     24113 TIP3     3438     TIP3     H1       HT       0.417000       1.00800           0
     24114 TIP3     3438     TIP3     H2       HT       0.417000       1.00800           0
     24115 TIP3     3439     TIP3     OH2      OT      -0.834000       15.9994           0
     24116 TIP3     3439     TIP3     H1       HT       0.417000       1.00800           0
     24117 TIP3     3439     TIP3     H2       HT       0.417000       1.00800           0
     24118 TIP3     3440     TIP3     OH2      OT      -0.834000       15.9994           0
     24119 TIP3     3440     TIP3     H1       HT       0.417000       1.00800           0
     24120 TIP3     3440     TIP3     H2       HT       0.417000       1.00800           0
     24121 TIP3     3441     TIP3     OH2      OT      -0.834000       15.9994           0
     24122 TIP3     3441     TIP3     H1       HT       0.417000       1.00800           0
     24123 TIP3     3441     TIP3     H2       HT       0.417000       1.00800           0
     24124 TIP3     3442     TIP3     OH2      OT      -0.834000       15.9994           0
     24125 TIP3     3442     TIP3     H1       HT       0.417000       1.00800           0
     24126 TIP3     3442     TIP3     H2       HT       0.417000       1.00800           0
     24127 TIP3     3443     TIP3     OH2      OT      -0.834000       15.9994           0
     24128 TIP3     3443     TIP3     H1       HT       0.417000       1.00800           0
     24129 TIP3     3443     TIP3     H2       HT       0.417000       1.00800           0
     24130 TIP3     3444     TIP3     OH2      OT      -0.834000       15.9994           0
     24131 TIP3     3444     TIP3     H1       HT       0.417000       1.00800           0
     24132 TIP3     3444     TIP3     H2       HT       0.417000       1.00800           0
     24133 TIP3     3445     TIP3     OH2      OT      -0.834000       15.9994           0
     24134 TIP3     3445     TIP3     H1       HT       0.417000       1.00800           0
     24135 TIP3     3445     TIP3     H2       HT       0.417000       1.00800           0
     24136 TIP3     3446     TIP3     OH2      OT      -0.834000       15.9994           0
     24137 TIP3     3446     TIP3     H1       HT       0.417000       1.00800           0
     24138 TIP3     3446     TIP3     H2       HT       0.417000       1.00800           0
     24139 TIP3     3447     TIP3     OH2      OT      -0.834000       15.9994           0
     24140 TIP3     3447     TIP3     H1       HT       0.417000       1.00800           0
     24141 TIP3     3447     TIP3     H2       HT       0.417000       1.00800           0
     24142 TIP3     3448     TIP3     OH2      OT      -0.834000       15.9994           0
     24143 TIP3     3448     TIP3     H1       HT       0.417000       1.00800           0
     24144 TIP3     3448     TIP3     H2       HT       0.417000       1.00800           0
     24145 TIP3     3449     TIP3     OH2      OT      -0.834000       15.9994           0
     24146 TIP3     3449     TIP3     H1       HT       0.417000       1.00800           0
     24147 TIP3     3449     TIP3     H2       HT       0.417000       1.00800           0
     24148 TIP3     3450     TIP3     OH2      OT      -0.834000       15.9994           0
     24149 TIP3     3450     TIP3     H1       HT       0.417000       1.00800           0
     24150 TIP3     3450     TIP3     H2       HT       0.417000       1.00800           0
     24151 TIP3     3451     TIP3     OH2      OT      -0.834000       15.9994           0
     24152 TIP3     3451     TIP3     H1       HT       0.417000       1.00800           0
     24153 TIP3     3451     TIP3     H2       HT       0.417000       1.00800           0
     24154 TIP3     3452     TIP3     OH2      OT      -0.834000       15.9994           0
     24155 TIP3     3452     TIP3     H1       HT       0.417000       1.00800           0
     24156 TIP3     3452     TIP3     H2       HT       0.417000       1.00800           0
     24157 TIP3     3453     TIP3     OH2      OT      -0.834000       15.9994           0
     24158 TIP3     3453     TIP3     H1       HT       0.417000       1.00800           0
     24159 TIP3     3453     TIP3     H2       HT       0.417000       1.00800           0
     24160 TIP3     3454     TIP3     OH2      OT      -0.834000       15.9994           0
     24161 TIP3     3454     TIP3     H1       HT       0.417000       1.00800           0
     24162 TIP3     3454     TIP3     H2       HT       0.417000       1.00800           0
     24163 TIP3     3455     TIP3     OH2      OT      -0.834000       15.9994           0
     24164 TIP3     3455     TIP3     H1       HT       0.417000       1.00800           0
     24165 TIP3     3455     TIP3     H2       HT       0.417000       1.00800           0
     24166 TIP3     3456     TIP3     OH2      OT      -0.834000       15.9994           0
     24167 TIP3     3456     TIP3     H1       HT       0.417000       1.00800           0
     24168 TIP3     3456     TIP3     H2       HT       0.417000       1.00800           0
     24169 TIP3     3457     TIP3     OH2      OT      -0.834000       15.9994           0
     24170 TIP3     3457     TIP3     H1       HT       0.417000       1.00800           0
     24171 TIP3     3457     TIP3     H2       HT       0.417000       1.00800           0
     24172 TIP3     3458     TIP3     OH2      OT      -0.834000       15.9994           0
     24173 TIP3     3458     TIP3     H1       HT       0.417000       1.00800           0
     24174 TIP3     3458     TIP3     H2       HT       0.417000       1.00800           0
     24175 TIP3     3459     TIP3     OH2      OT      -0.834000       15.9994           0
     24176 TIP3     3459     TIP3     H1       HT       0.417000       1.00800           0
     24177 TIP3     3459     TIP3     H2       HT       0.417000       1.00800           0
     24178 TIP3     3460     TIP3     OH2      OT      -0.834000       15.9994           0
     24179 TIP3     3460     TIP3     H1       HT       0.417000       1.00800           0
     24180 TIP3     3460     TIP3     H2       HT       0.417000       1.00800           0
     24181 TIP3     3461     TIP3     OH2      OT      -0.834000       15.9994           0
     24182 TIP3     3461     TIP3     H1       HT       0.417000       1.00800           0
     24183 TIP3     3461     TIP3     H2       HT       0.417000       1.00800           0
     24184 TIP3     3462     TIP3     OH2      OT      -0.834000       15.9994           0
     24185 TIP3     3462     TIP3     H1       HT       0.417000       1.00800           0
     24186 TIP3     3462     TIP3     H2       HT       0.417000       1.00800           0
     24187 TIP3     3463     TIP3     OH2      OT      -0.834000       15.9994           0
     24188 TIP3     3463     TIP3     H1       HT       0.417000       1.00800           0
     24189 TIP3     3463     TIP3     H2       HT       0.417000       1.00800           0
     24190 TIP3     3464     TIP3     OH2      OT      -0.834000       15.9994           0
     24191 TIP3     3464     TIP3     H1       HT       0.417000       1.00800           0
     24192 TIP3     3464     TIP3     H2       HT       0.417000       1.00800           0
     24193 TIP3     3465     TIP3     OH2      OT      -0.834000       15.9994           0
     24194 TIP3     3465     TIP3     H1       HT       0.417000       1.00800           0
     24195 TIP3     3465     TIP3     H2       HT       0.417000       1.00800           0
     24196 TIP3     3466     TIP3     OH2      OT      -0.834000       15.9994           0
     24197 TIP3     3466     TIP3     H1       HT       0.417000       1.00800           0
     24198 TIP3     3466     TIP3     H2       HT       0.417000       1.00800           0
     24199 TIP3     3467     TIP3     OH2      OT      -0.834000       15.9994           0
     24200 TIP3     3467     TIP3     H1       HT       0.417000       1.00800           0
     24201 TIP3     3467     TIP3     H2       HT       0.417000       1.00800           0
     24202 TIP3     3468     TIP3     OH2      OT      -0.834000       15.9994           0
     24203 TIP3     3468     TIP3     H1       HT       0.417000       1.00800           0
     24204 TIP3     3468     TIP3     H2       HT       0.417000       1.00800           0
     24205 TIP3     3469     TIP3     OH2      OT      -0.834000       15.9994           0
     24206 TIP3     3469     TIP3     H1       HT       0.417000       1.00800           0
     24207 TIP3     3469     TIP3     H2       HT       0.417000       1.00800           0
     24208 TIP3     3470     TIP3     OH2      OT      -0.834000       15.9994           0
     24209 TIP3     3470     TIP3     H1       HT       0.417000       1.00800           0
     24210 TIP3     3470     TIP3     H2       HT       0.417000       1.00800           0
     24211 TIP3     3471     TIP3     OH2      OT      -0.834000       15.9994           0
     24212 TIP3     3471     TIP3     H1       HT       0.417000       1.00800           0
     24213 TIP3     3471     TIP3     H2       HT       0.417000       1.00800           0
     24214 TIP3     3472     TIP3     OH2      OT      -0.834000       15.9994           0
     24215 TIP3     3472     TIP3     H1       HT       0.417000       1.00800           0
     24216 TIP3     3472     TIP3     H2       HT       0.417000       1.00800           0
     24217 TIP3     3473     TIP3     OH2      OT      -0.834000       15.9994           0
     24218 TIP3     3473     TIP3     H1       HT       0.417000       1.00800           0
     24219 TIP3     3473     TIP3     H2       HT       0.417000       1.00800           0
     24220 TIP3     3474     TIP3     OH2      OT      -0.834000       15.9994           0
     24221 TIP3     3474     TIP3     H1       HT       0.417000       1.00800           0
     24222 TIP3     3474     TIP3     H2       HT       0.417000       1.00800           0
     24223 TIP3     3475     TIP3     OH2      OT      -0.834000       15.9994           0
     24224 TIP3     3475     TIP3     H1       HT       0.417000       1.00800           0
     24225 TIP3     3475     TIP3     H2       HT       0.417000       1.00800           0
     24226 TIP3     3476     TIP3     OH2      OT      -0.834000       15.9994           0
     24227 TIP3     3476     TIP3     H1       HT       0.417000       1.00800           0
     24228 TIP3     3476     TIP3     H2       HT       0.417000       1.00800           0
     24229 TIP3     3477     TIP3     OH2      OT      -0.834000       15.9994           0
     24230 TIP3     3477     TIP3     H1       HT       0.417000       1.00800           0
     24231 TIP3     3477     TIP3     H2       HT       0.417000       1.00800           0
     24232 TIP3     3478     TIP3     OH2      OT      -0.834000       15.9994           0
     24233 TIP3     3478     TIP3     H1       HT       0.417000       1.00800           0
     24234 TIP3     3478     TIP3     H2       HT       0.417000       1.00800           0
     24235 TIP3     3479     TIP3     OH2      OT      -0.834000       15.9994           0
     24236 TIP3     3479     TIP3     H1       HT       0.417000       1.00800           0
     24237 TIP3     3479     TIP3     H2       HT       0.417000       1.00800           0
     24238 TIP3     3480     TIP3     OH2      OT      -0.834000       15.9994           0
     24239 TIP3     3480     TIP3     H1       HT       0.417000       1.00800           0
     24240 TIP3     3480     TIP3     H2       HT       0.417000       1.00800           0
     24241 TIP3     3481     TIP3     OH2      OT      -0.834000       15.9994           0
     24242 TIP3     3481     TIP3     H1       HT       0.417000       1.00800           0
     24243 TIP3     3481     TIP3     H2       HT       0.417000       1.00800           0
     24244 TIP3     3482     TIP3     OH2      OT      -0.834000       15.9994           0
     24245 TIP3     3482     TIP3     H1       HT       0.417000       1.00800           0
     24246 TIP3     3482     TIP3     H2       HT       0.417000       1.00800           0
     24247 TIP3     3483     TIP3     OH2      OT      -0.834000       15.9994           0
     24248 TIP3     3483     TIP3     H1       HT       0.417000       1.00800           0
     24249 TIP3     3483     TIP3     H2       HT       0.417000       1.00800           0
     24250 TIP3     3484     TIP3     OH2      OT      -0.834000       15.9994           0
     24251 TIP3     3484     TIP3     H1       HT       0.417000       1.00800           0
     24252 TIP3     3484     TIP3     H2       HT       0.417000       1.00800           0
     24253 TIP3     3485     TIP3     OH2      OT      -0.834000       15.9994           0
     24254 TIP3     3485     TIP3     H1       HT       0.417000       1.00800           0
     24255 TIP3     3485     TIP3     H2       HT       0.417000       1.00800           0
     24256 TIP3     3486     TIP3     OH2      OT      -0.834000       15.9994           0
     24257 TIP3     3486     TIP3     H1       HT       0.417000       1.00800           0
     24258 TIP3     3486     TIP3     H2       HT       0.417000       1.00800           0
     24259 TIP3     3487     TIP3     OH2      OT      -0.834000       15.9994           0
     24260 TIP3     3487     TIP3     H1       HT       0.417000       1.00800           0
     24261 TIP3     3487     TIP3     H2       HT       0.417000       1.00800           0
     24262 TIP3     3488     TIP3     OH2      OT      -0.834000       15.9994           0
     24263 TIP3     3488     TIP3     H1       HT       0.417000       1.00800           0
     24264 TIP3     3488     TIP3     H2       HT       0.417000       1.00800           0
     24265 TIP3     3489     TIP3     OH2      OT      -0.834000       15.9994           0
     24266 TIP3     3489     TIP3     H1       HT       0.417000       1.00800           0
     24267 TIP3     3489     TIP3     H2       HT       0.417000       1.00800           0
     24268 TIP3     3490     TIP3     OH2      OT      -0.834000       15.9994           0
     24269 TIP3     3490     TIP3     H1       HT       0.417000       1.00800           0
     24270 TIP3     3490     TIP3     H2       HT       0.417000       1.00800           0
     24271 TIP3     3491     TIP3     OH2      OT      -0.834000       15.9994           0
     24272 TIP3     3491     TIP3     H1       HT       0.417000       1.00800           0
     24273 TIP3     3491     TIP3     H2       HT       0.417000       1.00800           0
     24274 TIP3     3492     TIP3     OH2      OT      -0.834000       15.9994           0
     24275 TIP3     3492     TIP3     H1       HT       0.417000       1.00800           0
     24276 TIP3     3492     TIP3     H2       HT       0.417000       1.00800           0
     24277 TIP3     3493     TIP3     OH2      OT      -0.834000       15.9994           0
     24278 TIP3     3493     TIP3     H1       HT       0.417000       1.00800           0
     24279 TIP3     3493     TIP3     H2       HT       0.417000       1.00800           0
     24280 TIP3     3494     TIP3     OH2      OT      -0.834000       15.9994           0
     24281 TIP3     3494     TIP3     H1       HT       0.417000       1.00800           0
     24282 TIP3     3494     TIP3     H2       HT       0.417000       1.00800           0
     24283 TIP3     3495     TIP3     OH2      OT      -0.834000       15.9994           0
     24284 TIP3     3495     TIP3     H1       HT       0.417000       1.00800           0
     24285 TIP3     3495     TIP3     H2       HT       0.417000       1.00800           0
     24286 TIP3     3496     TIP3     OH2      OT      -0.834000       15.9994           0
     24287 TIP3     3496     TIP3     H1       HT       0.417000       1.00800           0
     24288 TIP3     3496     TIP3     H2       HT       0.417000       1.00800           0
     24289 TIP3     3497     TIP3     OH2      OT      -0.834000       15.9994           0
     24290 TIP3     3497     TIP3     H1       HT       0.417000       1.00800           0
     24291 TIP3     3497     TIP3     H2       HT       0.417000       1.00800           0
     24292 TIP3     3498     TIP3     OH2      OT      -0.834000       15.9994           0
     24293 TIP3     3498     TIP3     H1       HT       0.417000       1.00800           0
     24294 TIP3     3498     TIP3     H2       HT       0.417000       1.00800           0
     24295 TIP3     3499     TIP3     OH2      OT      -0.834000       15.9994           0
     24296 TIP3     3499     TIP3     H1       HT       0.417000       1.00800           0
     24297 TIP3     3499     TIP3     H2       HT       0.417000       1.00800           0
     24298 TIP3     3500     TIP3     OH2      OT      -0.834000       15.9994           0
     24299 TIP3     3500     TIP3     H1       HT       0.417000       1.00800           0
     24300 TIP3     3500     TIP3     H2       HT       0.417000       1.00800           0
     24301 TIP3     3501     TIP3     OH2      OT      -0.834000       15.9994           0
     24302 TIP3     3501     TIP3     H1       HT       0.417000       1.00800           0
     24303 TIP3     3501     TIP3     H2       HT       0.417000       1.00800           0
     24304 TIP3     3502     TIP3     OH2      OT      -0.834000       15.9994           0
     24305 TIP3     3502     TIP3     H1       HT       0.417000       1.00800           0
     24306 TIP3     3502     TIP3     H2       HT       0.417000       1.00800           0
     24307 TIP3     3503     TIP3     OH2      OT      -0.834000       15.9994           0
     24308 TIP3     3503     TIP3     H1       HT       0.417000       1.00800           0
     24309 TIP3     3503     TIP3     H2       HT       0.417000       1.00800           0
     24310 TIP3     3504     TIP3     OH2      OT      -0.834000       15.9994           0
     24311 TIP3     3504     TIP3     H1       HT       0.417000       1.00800           0
     24312 TIP3     3504     TIP3     H2       HT       0.417000       1.00800           0
     24313 TIP3     3505     TIP3     OH2      OT      -0.834000       15.9994           0
     24314 TIP3     3505     TIP3     H1       HT       0.417000       1.00800           0
     24315 TIP3     3505     TIP3     H2       HT       0.417000       1.00800           0
     24316 TIP3     3506     TIP3     OH2      OT      -0.834000       15.9994           0
     24317 TIP3     3506     TIP3     H1       HT       0.417000       1.00800           0
     24318 TIP3     3506     TIP3     H2       HT       0.417000       1.00800           0
     24319 TIP3     3507     TIP3     OH2      OT      -0.834000       15.9994           0
     24320 TIP3     3507     TIP3     H1       HT       0.417000       1.00800           0
     24321 TIP3     3507     TIP3     H2       HT       0.417000       1.00800           0
     24322 TIP3     3508     TIP3     OH2      OT      -0.834000       15.9994           0
     24323 TIP3     3508     TIP3     H1       HT       0.417000       1.00800           0
     24324 TIP3     3508     TIP3     H2       HT       0.417000       1.00800           0
     24325 TIP3     3509     TIP3     OH2      OT      -0.834000       15.9994           0
     24326 TIP3     3509     TIP3     H1       HT       0.417000       1.00800           0
     24327 TIP3     3509     TIP3     H2       HT       0.417000       1.00800           0
     24328 TIP3     3510     TIP3     OH2      OT      -0.834000       15.9994           0
     24329 TIP3     3510     TIP3     H1       HT       0.417000       1.00800           0
     24330 TIP3     3510     TIP3     H2       HT       0.417000       1.00800           0
     24331 TIP3     3511     TIP3     OH2      OT      -0.834000       15.9994           0
     24332 TIP3     3511     TIP3     H1       HT       0.417000       1.00800           0
     24333 TIP3     3511     TIP3     H2       HT       0.417000       1.00800           0
     24334 TIP3     3512     TIP3     OH2      OT      -0.834000       15.9994           0
     24335 TIP3     3512     TIP3     H1       HT       0.417000       1.00800           0
     24336 TIP3     3512     TIP3     H2       HT       0.417000       1.00800           0
     24337 TIP3     3513     TIP3     OH2      OT      -0.834000       15.9994           0
     24338 TIP3     3513     TIP3     H1       HT       0.417000       1.00800           0
     24339 TIP3     3513     TIP3     H2       HT       0.417000       1.00800           0
     24340 TIP3     3514     TIP3     OH2      OT      -0.834000       15.9994           0
     24341 TIP3     3514     TIP3     H1       HT       0.417000       1.00800           0
     24342 TIP3     3514     TIP3     H2       HT       0.417000       1.00800           0
     24343 TIP3     3515     TIP3     OH2      OT      -0.834000       15.9994           0
     24344 TIP3     3515     TIP3     H1       HT       0.417000       1.00800           0
     24345 TIP3     3515     TIP3     H2       HT       0.417000       1.00800           0
     24346 TIP3     3516     TIP3     OH2      OT      -0.834000       15.9994           0
     24347 TIP3     3516     TIP3     H1       HT       0.417000       1.00800           0
     24348 TIP3     3516     TIP3     H2       HT       0.417000       1.00800           0
     24349 TIP3     3517     TIP3     OH2      OT      -0.834000       15.9994           0
     24350 TIP3     3517     TIP3     H1       HT       0.417000       1.00800           0
     24351 TIP3     3517     TIP3     H2       HT       0.417000       1.00800           0
     24352 TIP3     3518     TIP3     OH2      OT      -0.834000       15.9994           0
     24353 TIP3     3518     TIP3     H1       HT       0.417000       1.00800           0
     24354 TIP3     3518     TIP3     H2       HT       0.417000       1.00800           0
     24355 TIP3     3519     TIP3     OH2      OT      -0.834000       15.9994           0
     24356 TIP3     3519     TIP3     H1       HT       0.417000       1.00800           0
     24357 TIP3     3519     TIP3     H2       HT       0.417000       1.00800           0
     24358 TIP3     3520     TIP3     OH2      OT      -0.834000       15.9994           0
     24359 TIP3     3520     TIP3     H1       HT       0.417000       1.00800           0
     24360 TIP3     3520     TIP3     H2       HT       0.417000       1.00800           0
     24361 TIP3     3521     TIP3     OH2      OT      -0.834000       15.9994           0
     24362 TIP3     3521     TIP3     H1       HT       0.417000       1.00800           0
     24363 TIP3     3521     TIP3     H2       HT       0.417000       1.00800           0
     24364 TIP3     3522     TIP3     OH2      OT      -0.834000       15.9994           0
     24365 TIP3     3522     TIP3     H1       HT       0.417000       1.00800           0
     24366 TIP3     3522     TIP3     H2       HT       0.417000       1.00800           0
     24367 TIP3     3523     TIP3     OH2      OT      -0.834000       15.9994           0
     24368 TIP3     3523     TIP3     H1       HT       0.417000       1.00800           0
     24369 TIP3     3523     TIP3     H2       HT       0.417000       1.00800           0
     24370 TIP3     3524     TIP3     OH2      OT      -0.834000       15.9994           0
     24371 TIP3     3524     TIP3     H1       HT       0.417000       1.00800           0
     24372 TIP3     3524     TIP3     H2       HT       0.417000       1.00800           0
     24373 TIP3     3525     TIP3     OH2      OT      -0.834000       15.9994           0
     24374 TIP3     3525     TIP3     H1       HT       0.417000       1.00800           0
     24375 TIP3     3525     TIP3     H2       HT       0.417000       1.00800           0
     24376 TIP3     3526     TIP3     OH2      OT      -0.834000       15.9994           0
     24377 TIP3     3526     TIP3     H1       HT       0.417000       1.00800           0
     24378 TIP3     3526     TIP3     H2       HT       0.417000       1.00800           0
     24379 TIP3     3527     TIP3     OH2      OT      -0.834000       15.9994           0
     24380 TIP3     3527     TIP3     H1       HT       0.417000       1.00800           0
     24381 TIP3     3527     TIP3     H2       HT       0.417000       1.00800           0
     24382 TIP3     3528     TIP3     OH2      OT      -0.834000       15.9994           0
     24383 TIP3     3528     TIP3     H1       HT       0.417000       1.00800           0
     24384 TIP3     3528     TIP3     H2       HT       0.417000       1.00800           0
     24385 TIP3     3529     TIP3     OH2      OT      -0.834000       15.9994           0
     24386 TIP3     3529     TIP3     H1       HT       0.417000       1.00800           0
     24387 TIP3     3529     TIP3     H2       HT       0.417000       1.00800           0
     24388 TIP3     3530     TIP3     OH2      OT      -0.834000       15.9994           0
     24389 TIP3     3530     TIP3     H1       HT       0.417000       1.00800           0
     24390 TIP3     3530     TIP3     H2       HT       0.417000       1.00800           0
     24391 TIP3     3531     TIP3     OH2      OT      -0.834000       15.9994           0
     24392 TIP3     3531     TIP3     H1       HT       0.417000       1.00800           0
     24393 TIP3     3531     TIP3     H2       HT       0.417000       1.00800           0
     24394 TIP3     3532     TIP3     OH2      OT      -0.834000       15.9994           0
     24395 TIP3     3532     TIP3     H1       HT       0.417000       1.00800           0
     24396 TIP3     3532     TIP3     H2       HT       0.417000       1.00800           0
     24397 TIP3     3533     TIP3     OH2      OT      -0.834000       15.9994           0
     24398 TIP3     3533     TIP3     H1       HT       0.417000       1.00800           0
     24399 TIP3     3533     TIP3     H2       HT       0.417000       1.00800           0
     24400 TIP3     3534     TIP3     OH2      OT      -0.834000       15.9994           0
     24401 TIP3     3534     TIP3     H1       HT       0.417000       1.00800           0
     24402 TIP3     3534     TIP3     H2       HT       0.417000       1.00800           0
     24403 TIP3     3535     TIP3     OH2      OT      -0.834000       15.9994           0
     24404 TIP3     3535     TIP3     H1       HT       0.417000       1.00800           0
     24405 TIP3     3535     TIP3     H2       HT       0.417000       1.00800           0
     24406 TIP3     3536     TIP3     OH2      OT      -0.834000       15.9994           0
     24407 TIP3     3536     TIP3     H1       HT       0.417000       1.00800           0
     24408 TIP3     3536     TIP3     H2       HT       0.417000       1.00800           0
     24409 TIP3     3537     TIP3     OH2      OT      -0.834000       15.9994           0
     24410 TIP3     3537     TIP3     H1       HT       0.417000       1.00800           0
     24411 TIP3     3537     TIP3     H2       HT       0.417000       1.00800           0
     24412 TIP3     3538     TIP3     OH2      OT      -0.834000       15.9994           0
     24413 TIP3     3538     TIP3     H1       HT       0.417000       1.00800           0
     24414 TIP3     3538     TIP3     H2       HT       0.417000       1.00800           0
     24415 TIP3     3539     TIP3     OH2      OT      -0.834000       15.9994           0
     24416 TIP3     3539     TIP3     H1       HT       0.417000       1.00800           0
     24417 TIP3     3539     TIP3     H2       HT       0.417000       1.00800           0
     24418 TIP3     3540     TIP3     OH2      OT      -0.834000       15.9994           0
     24419 TIP3     3540     TIP3     H1       HT       0.417000       1.00800           0
     24420 TIP3     3540     TIP3     H2       HT       0.417000       1.00800           0
     24421 TIP3     3541     TIP3     OH2      OT      -0.834000       15.9994           0
     24422 TIP3     3541     TIP3     H1       HT       0.417000       1.00800           0
     24423 TIP3     3541     TIP3     H2       HT       0.417000       1.00800           0
     24424 TIP3     3542     TIP3     OH2      OT      -0.834000       15.9994           0
     24425 TIP3     3542     TIP3     H1       HT       0.417000       1.00800           0
     24426 TIP3     3542     TIP3     H2       HT       0.417000       1.00800           0
     24427 TIP3     3543     TIP3     OH2      OT      -0.834000       15.9994           0
     24428 TIP3     3543     TIP3     H1       HT       0.417000       1.00800           0
     24429 TIP3     3543     TIP3     H2       HT       0.417000       1.00800           0
     24430 TIP3     3544     TIP3     OH2      OT      -0.834000       15.9994           0
     24431 TIP3     3544     TIP3     H1       HT       0.417000       1.00800           0
     24432 TIP3     3544     TIP3     H2       HT       0.417000       1.00800           0
     24433 TIP3     3545     TIP3     OH2      OT      -0.834000       15.9994           0
     24434 TIP3     3545     TIP3     H1       HT       0.417000       1.00800           0
     24435 TIP3     3545     TIP3     H2       HT       0.417000       1.00800           0
     24436 TIP3     3546     TIP3     OH2      OT      -0.834000       15.9994           0
     24437 TIP3     3546     TIP3     H1       HT       0.417000       1.00800           0
     24438 TIP3     3546     TIP3     H2       HT       0.417000       1.00800           0
     24439 TIP3     3547     TIP3     OH2      OT      -0.834000       15.9994           0
     24440 TIP3     3547     TIP3     H1       HT       0.417000       1.00800           0
     24441 TIP3     3547     TIP3     H2       HT       0.417000       1.00800           0
     24442 TIP3     3548     TIP3     OH2      OT      -0.834000       15.9994           0
     24443 TIP3     3548     TIP3     H1       HT       0.417000       1.00800           0
     24444 TIP3     3548     TIP3     H2       HT       0.417000       1.00800           0
     24445 TIP3     3549     TIP3     OH2      OT      -0.834000       15.9994           0
     24446 TIP3     3549     TIP3     H1       HT       0.417000       1.00800           0
     24447 TIP3     3549     TIP3     H2       HT       0.417000       1.00800           0
     24448 TIP3     3550     TIP3     OH2      OT      -0.834000       15.9994           0
     24449 TIP3     3550     TIP3     H1       HT       0.417000       1.00800           0
     24450 TIP3     3550     TIP3     H2       HT       0.417000       1.00800           0
     24451 TIP3     3551     TIP3     OH2      OT      -0.834000       15.9994           0
     24452 TIP3     3551     TIP3     H1       HT       0.417000       1.00800           0
     24453 TIP3     3551     TIP3     H2       HT       0.417000       1.00800           0
     24454 TIP3     3552     TIP3     OH2      OT      -0.834000       15.9994           0
     24455 TIP3     3552     TIP3     H1       HT       0.417000       1.00800           0
     24456 TIP3     3552     TIP3     H2       HT       0.417000       1.00800           0
     24457 TIP3     3553     TIP3     OH2      OT      -0.834000       15.9994           0
     24458 TIP3     3553     TIP3     H1       HT       0.417000       1.00800           0
     24459 TIP3     3553     TIP3     H2       HT       0.417000       1.00800           0
     24460 TIP3     3554     TIP3     OH2      OT      -0.834000       15.9994           0
     24461 TIP3     3554     TIP3     H1       HT       0.417000       1.00800           0
     24462 TIP3     3554     TIP3     H2       HT       0.417000       1.00800           0
     24463 TIP3     3555     TIP3     OH2      OT      -0.834000       15.9994           0
     24464 TIP3     3555     TIP3     H1       HT       0.417000       1.00800           0
     24465 TIP3     3555     TIP3     H2       HT       0.417000       1.00800           0
     24466 TIP3     3556     TIP3     OH2      OT      -0.834000       15.9994           0
     24467 TIP3     3556     TIP3     H1       HT       0.417000       1.00800           0
     24468 TIP3     3556     TIP3     H2       HT       0.417000       1.00800           0
     24469 TIP3     3557     TIP3     OH2      OT      -0.834000       15.9994           0
     24470 TIP3     3557     TIP3     H1       HT       0.417000       1.00800           0
     24471 TIP3     3557     TIP3     H2       HT       0.417000       1.00800           0
     24472 TIP3     3558     TIP3     OH2      OT      -0.834000       15.9994           0
     24473 TIP3     3558     TIP3     H1       HT       0.417000       1.00800           0
     24474 TIP3     3558     TIP3     H2       HT       0.417000       1.00800           0
     24475 TIP3     3559     TIP3     OH2      OT      -0.834000       15.9994           0
     24476 TIP3     3559     TIP3     H1       HT       0.417000       1.00800           0
     24477 TIP3     3559     TIP3     H2       HT       0.417000       1.00800           0
     24478 TIP3     3560     TIP3     OH2      OT      -0.834000       15.9994           0
     24479 TIP3     3560     TIP3     H1       HT       0.417000       1.00800           0
     24480 TIP3     3560     TIP3     H2       HT       0.417000       1.00800           0
     24481 TIP3     3561     TIP3     OH2      OT      -0.834000       15.9994           0
     24482 TIP3     3561     TIP3     H1       HT       0.417000       1.00800           0
     24483 TIP3     3561     TIP3     H2       HT       0.417000       1.00800           0
     24484 TIP3     3562     TIP3     OH2      OT      -0.834000       15.9994           0
     24485 TIP3     3562     TIP3     H1       HT       0.417000       1.00800           0
     24486 TIP3     3562     TIP3     H2       HT       0.417000       1.00800           0
     24487 TIP3     3563     TIP3     OH2      OT      -0.834000       15.9994           0
     24488 TIP3     3563     TIP3     H1       HT       0.417000       1.00800           0
     24489 TIP3     3563     TIP3     H2       HT       0.417000       1.00800           0
     24490 TIP3     3564     TIP3     OH2      OT      -0.834000       15.9994           0
     24491 TIP3     3564     TIP3     H1       HT       0.417000       1.00800           0
     24492 TIP3     3564     TIP3     H2       HT       0.417000       1.00800           0
     24493 TIP3     3565     TIP3     OH2      OT      -0.834000       15.9994           0
     24494 TIP3     3565     TIP3     H1       HT       0.417000       1.00800           0
     24495 TIP3     3565     TIP3     H2       HT       0.417000       1.00800           0
     24496 TIP3     3566     TIP3     OH2      OT      -0.834000       15.9994           0
     24497 TIP3     3566     TIP3     H1       HT       0.417000       1.00800           0
     24498 TIP3     3566     TIP3     H2       HT       0.417000       1.00800           0
     24499 TIP3     3567     TIP3     OH2      OT      -0.834000       15.9994           0
     24500 TIP3     3567     TIP3     H1       HT       0.417000       1.00800           0
     24501 TIP3     3567     TIP3     H2       HT       0.417000       1.00800           0
     24502 TIP3     3568     TIP3     OH2      OT      -0.834000       15.9994           0
     24503 TIP3     3568     TIP3     H1       HT       0.417000       1.00800           0
     24504 TIP3     3568     TIP3     H2       HT       0.417000       1.00800           0
     24505 TIP3     3569     TIP3     OH2      OT      -0.834000       15.9994           0
     24506 TIP3     3569     TIP3     H1       HT       0.417000       1.00800           0
     24507 TIP3     3569     TIP3     H2       HT       0.417000       1.00800           0
     24508 TIP3     3570     TIP3     OH2      OT      -0.834000       15.9994           0
     24509 TIP3     3570     TIP3     H1       HT       0.417000       1.00800           0
     24510 TIP3     3570     TIP3     H2       HT       0.417000       1.00800           0
     24511 TIP3     3571     TIP3     OH2      OT      -0.834000       15.9994           0
     24512 TIP3     3571     TIP3     H1       HT       0.417000       1.00800           0
     24513 TIP3     3571     TIP3     H2       HT       0.417000       1.00800           0
     24514 TIP3     3572     TIP3     OH2      OT      -0.834000       15.9994           0
     24515 TIP3     3572     TIP3     H1       HT       0.417000       1.00800           0
     24516 TIP3     3572     TIP3     H2       HT       0.417000       1.00800           0
     24517 TIP3     3573     TIP3     OH2      OT      -0.834000       15.9994           0
     24518 TIP3     3573     TIP3     H1       HT       0.417000       1.00800           0
     24519 TIP3     3573     TIP3     H2       HT       0.417000       1.00800           0
     24520 TIP3     3574     TIP3     OH2      OT      -0.834000       15.9994           0
     24521 TIP3     3574     TIP3     H1       HT       0.417000       1.00800           0
     24522 TIP3     3574     TIP3     H2       HT       0.417000       1.00800           0
     24523 TIP3     3575     TIP3     OH2      OT      -0.834000       15.9994           0
     24524 TIP3     3575     TIP3     H1       HT       0.417000       1.00800           0
     24525 TIP3     3575     TIP3     H2       HT       0.417000       1.00800           0
     24526 TIP3     3576     TIP3     OH2      OT      -0.834000       15.9994           0
     24527 TIP3     3576     TIP3     H1       HT       0.417000       1.00800           0
     24528 TIP3     3576     TIP3     H2       HT       0.417000       1.00800           0
     24529 TIP3     3577     TIP3     OH2      OT      -0.834000       15.9994           0
     24530 TIP3     3577     TIP3     H1       HT       0.417000       1.00800           0
     24531 TIP3     3577     TIP3     H2       HT       0.417000       1.00800           0
     24532 TIP3     3578     TIP3     OH2      OT      -0.834000       15.9994           0
     24533 TIP3     3578     TIP3     H1       HT       0.417000       1.00800           0
     24534 TIP3     3578     TIP3     H2       HT       0.417000       1.00800           0
     24535 TIP3     3579     TIP3     OH2      OT      -0.834000       15.9994           0
     24536 TIP3     3579     TIP3     H1       HT       0.417000       1.00800           0
     24537 TIP3     3579     TIP3     H2       HT       0.417000       1.00800           0
     24538 TIP3     3580     TIP3     OH2      OT      -0.834000       15.9994           0
     24539 TIP3     3580     TIP3     H1       HT       0.417000       1.00800           0
     24540 TIP3     3580     TIP3     H2       HT       0.417000       1.00800           0
     24541 TIP3     3581     TIP3     OH2      OT      -0.834000       15.9994           0
     24542 TIP3     3581     TIP3     H1       HT       0.417000       1.00800           0
     24543 TIP3     3581     TIP3     H2       HT       0.417000       1.00800           0
     24544 TIP3     3582     TIP3     OH2      OT      -0.834000       15.9994           0
     24545 TIP3     3582     TIP3     H1       HT       0.417000       1.00800           0
     24546 TIP3     3582     TIP3     H2       HT       0.417000       1.00800           0
     24547 TIP3     3583     TIP3     OH2      OT      -0.834000       15.9994           0
     24548 TIP3     3583     TIP3     H1       HT       0.417000       1.00800           0
     24549 TIP3     3583     TIP3     H2       HT       0.417000       1.00800           0
     24550 TIP3     3584     TIP3     OH2      OT      -0.834000       15.9994           0
     24551 TIP3     3584     TIP3     H1       HT       0.417000       1.00800           0
     24552 TIP3     3584     TIP3     H2       HT       0.417000       1.00800           0
     24553 TIP3     3585     TIP3     OH2      OT      -0.834000       15.9994           0
     24554 TIP3     3585     TIP3     H1       HT       0.417000       1.00800           0
     24555 TIP3     3585     TIP3     H2       HT       0.417000       1.00800           0
     24556 TIP3     3586     TIP3     OH2      OT      -0.834000       15.9994           0
     24557 TIP3     3586     TIP3     H1       HT       0.417000       1.00800           0
     24558 TIP3     3586     TIP3     H2       HT       0.417000       1.00800           0
     24559 TIP3     3587     TIP3     OH2      OT      -0.834000       15.9994           0
     24560 TIP3     3587     TIP3     H1       HT       0.417000       1.00800           0
     24561 TIP3     3587     TIP3     H2       HT       0.417000       1.00800           0
     24562 TIP3     3588     TIP3     OH2      OT      -0.834000       15.9994           0
     24563 TIP3     3588     TIP3     H1       HT       0.417000       1.00800           0
     24564 TIP3     3588     TIP3     H2       HT       0.417000       1.00800           0
     24565 TIP3     3589     TIP3     OH2      OT      -0.834000       15.9994           0
     24566 TIP3     3589     TIP3     H1       HT       0.417000       1.00800           0
     24567 TIP3     3589     TIP3     H2       HT       0.417000       1.00800           0
     24568 TIP3     3590     TIP3     OH2      OT      -0.834000       15.9994           0
     24569 TIP3     3590     TIP3     H1       HT       0.417000       1.00800           0
     24570 TIP3     3590     TIP3     H2       HT       0.417000       1.00800           0
     24571 TIP3     3591     TIP3     OH2      OT      -0.834000       15.9994           0
     24572 TIP3     3591     TIP3     H1       HT       0.417000       1.00800           0
     24573 TIP3     3591     TIP3     H2       HT       0.417000       1.00800           0
     24574 TIP3     3592     TIP3     OH2      OT      -0.834000       15.9994           0
     24575 TIP3     3592     TIP3     H1       HT       0.417000       1.00800           0
     24576 TIP3     3592     TIP3     H2       HT       0.417000       1.00800           0
     24577 TIP3     3593     TIP3     OH2      OT      -0.834000       15.9994           0
     24578 TIP3     3593     TIP3     H1       HT       0.417000       1.00800           0
     24579 TIP3     3593     TIP3     H2       HT       0.417000       1.00800           0
     24580 TIP3     3594     TIP3     OH2      OT      -0.834000       15.9994           0
     24581 TIP3     3594     TIP3     H1       HT       0.417000       1.00800           0
     24582 TIP3     3594     TIP3     H2       HT       0.417000       1.00800           0
     24583 TIP3     3595     TIP3     OH2      OT      -0.834000       15.9994           0
     24584 TIP3     3595     TIP3     H1       HT       0.417000       1.00800           0
     24585 TIP3     3595     TIP3     H2       HT       0.417000       1.00800           0
     24586 TIP3     3596     TIP3     OH2      OT      -0.834000       15.9994           0
     24587 TIP3     3596     TIP3     H1       HT       0.417000       1.00800           0
     24588 TIP3     3596     TIP3     H2       HT       0.417000       1.00800           0
     24589 TIP3     3597     TIP3     OH2      OT      -0.834000       15.9994           0
     24590 TIP3     3597     TIP3     H1       HT       0.417000       1.00800           0
     24591 TIP3     3597     TIP3     H2       HT       0.417000       1.00800           0
     24592 TIP3     3598     TIP3     OH2      OT      -0.834000       15.9994           0
     24593 TIP3     3598     TIP3     H1       HT       0.417000       1.00800           0
     24594 TIP3     3598     TIP3     H2       HT       0.417000       1.00800           0
     24595 TIP3     3599     TIP3     OH2      OT      -0.834000       15.9994           0
     24596 TIP3     3599     TIP3     H1       HT       0.417000       1.00800           0
     24597 TIP3     3599     TIP3     H2       HT       0.417000       1.00800           0
     24598 TIP3     3600     TIP3     OH2      OT      -0.834000       15.9994           0
     24599 TIP3     3600     TIP3     H1       HT       0.417000       1.00800           0
     24600 TIP3     3600     TIP3     H2       HT       0.417000       1.00800           0
     24601 TIP3     3601     TIP3     OH2      OT      -0.834000       15.9994           0
     24602 TIP3     3601     TIP3     H1       HT       0.417000       1.00800           0
     24603 TIP3     3601     TIP3     H2       HT       0.417000       1.00800           0
     24604 TIP3     3602     TIP3     OH2      OT      -0.834000       15.9994           0
     24605 TIP3     3602     TIP3     H1       HT       0.417000       1.00800           0
     24606 TIP3     3602     TIP3     H2       HT       0.417000       1.00800           0
     24607 TIP3     3603     TIP3     OH2      OT      -0.834000       15.9994           0
     24608 TIP3     3603     TIP3     H1       HT       0.417000       1.00800           0
     24609 TIP3     3603     TIP3     H2       HT       0.417000       1.00800           0
     24610 TIP3     3604     TIP3     OH2      OT      -0.834000       15.9994           0
     24611 TIP3     3604     TIP3     H1       HT       0.417000       1.00800           0
     24612 TIP3     3604     TIP3     H2       HT       0.417000       1.00800           0
     24613 TIP3     3605     TIP3     OH2      OT      -0.834000       15.9994           0
     24614 TIP3     3605     TIP3     H1       HT       0.417000       1.00800           0
     24615 TIP3     3605     TIP3     H2       HT       0.417000       1.00800           0
     24616 TIP3     3606     TIP3     OH2      OT      -0.834000       15.9994           0
     24617 TIP3     3606     TIP3     H1       HT       0.417000       1.00800           0
     24618 TIP3     3606     TIP3     H2       HT       0.417000       1.00800           0
     24619 TIP3     3607     TIP3     OH2      OT      -0.834000       15.9994           0
     24620 TIP3     3607     TIP3     H1       HT       0.417000       1.00800           0
     24621 TIP3     3607     TIP3     H2       HT       0.417000       1.00800           0
     24622 TIP3     3608     TIP3     OH2      OT      -0.834000       15.9994           0
     24623 TIP3     3608     TIP3     H1       HT       0.417000       1.00800           0
     24624 TIP3     3608     TIP3     H2       HT       0.417000       1.00800           0
     24625 TIP3     3609     TIP3     OH2      OT      -0.834000       15.9994           0
     24626 TIP3     3609     TIP3     H1       HT       0.417000       1.00800           0
     24627 TIP3     3609     TIP3     H2       HT       0.417000       1.00800           0
     24628 TIP3     3610     TIP3     OH2      OT      -0.834000       15.9994           0
     24629 TIP3     3610     TIP3     H1       HT       0.417000       1.00800           0
     24630 TIP3     3610     TIP3     H2       HT       0.417000       1.00800           0
     24631 TIP3     3611     TIP3     OH2      OT      -0.834000       15.9994           0
     24632 TIP3     3611     TIP3     H1       HT       0.417000       1.00800           0
     24633 TIP3     3611     TIP3     H2       HT       0.417000       1.00800           0
     24634 TIP3     3612     TIP3     OH2      OT      -0.834000       15.9994           0
     24635 TIP3     3612     TIP3     H1       HT       0.417000       1.00800           0
     24636 TIP3     3612     TIP3     H2       HT       0.417000       1.00800           0
     24637 TIP3     3613     TIP3     OH2      OT      -0.834000       15.9994           0
     24638 TIP3     3613     TIP3     H1       HT       0.417000       1.00800           0
     24639 TIP3     3613     TIP3     H2       HT       0.417000       1.00800           0
     24640 TIP3     3614     TIP3     OH2      OT      -0.834000       15.9994           0
     24641 TIP3     3614     TIP3     H1       HT       0.417000       1.00800           0
     24642 TIP3     3614     TIP3     H2       HT       0.417000       1.00800           0
     24643 TIP3     3615     TIP3     OH2      OT      -0.834000       15.9994           0
     24644 TIP3     3615     TIP3     H1       HT       0.417000       1.00800           0
     24645 TIP3     3615     TIP3     H2       HT       0.417000       1.00800           0
     24646 TIP3     3616     TIP3     OH2      OT      -0.834000       15.9994           0
     24647 TIP3     3616     TIP3     H1       HT       0.417000       1.00800           0
     24648 TIP3     3616     TIP3     H2       HT       0.417000       1.00800           0
     24649 TIP3     3617     TIP3     OH2      OT      -0.834000       15.9994           0
     24650 TIP3     3617     TIP3     H1       HT       0.417000       1.00800           0
     24651 TIP3     3617     TIP3     H2       HT       0.417000       1.00800           0
     24652 TIP3     3618     TIP3     OH2      OT      -0.834000       15.9994           0
     24653 TIP3     3618     TIP3     H1       HT       0.417000       1.00800           0
     24654 TIP3     3618     TIP3     H2       HT       0.417000       1.00800           0
     24655 TIP3     3619     TIP3     OH2      OT      -0.834000       15.9994           0
     24656 TIP3     3619     TIP3     H1       HT       0.417000       1.00800           0
     24657 TIP3     3619     TIP3     H2       HT       0.417000       1.00800           0
     24658 TIP3     3620     TIP3     OH2      OT      -0.834000       15.9994           0
     24659 TIP3     3620     TIP3     H1       HT       0.417000       1.00800           0
     24660 TIP3     3620     TIP3     H2       HT       0.417000       1.00800           0
     24661 TIP3     3621     TIP3     OH2      OT      -0.834000       15.9994           0
     24662 TIP3     3621     TIP3     H1       HT       0.417000       1.00800           0
     24663 TIP3     3621     TIP3     H2       HT       0.417000       1.00800           0
     24664 TIP3     3622     TIP3     OH2      OT      -0.834000       15.9994           0
     24665 TIP3     3622     TIP3     H1       HT       0.417000       1.00800           0
     24666 TIP3     3622     TIP3     H2       HT       0.417000       1.00800           0
     24667 TIP3     3623     TIP3     OH2      OT      -0.834000       15.9994           0
     24668 TIP3     3623     TIP3     H1       HT       0.417000       1.00800           0
     24669 TIP3     3623     TIP3     H2       HT       0.417000       1.00800           0
     24670 TIP3     3624     TIP3     OH2      OT      -0.834000       15.9994           0
     24671 TIP3     3624     TIP3     H1       HT       0.417000       1.00800           0
     24672 TIP3     3624     TIP3     H2       HT       0.417000       1.00800           0
     24673 TIP3     3625     TIP3     OH2      OT      -0.834000       15.9994           0
     24674 TIP3     3625     TIP3     H1       HT       0.417000       1.00800           0
     24675 TIP3     3625     TIP3     H2       HT       0.417000       1.00800           0
     24676 TIP3     3626     TIP3     OH2      OT      -0.834000       15.9994           0
     24677 TIP3     3626     TIP3     H1       HT       0.417000       1.00800           0
     24678 TIP3     3626     TIP3     H2       HT       0.417000       1.00800           0
     24679 TIP3     3627     TIP3     OH2      OT      -0.834000       15.9994           0
     24680 TIP3     3627     TIP3     H1       HT       0.417000       1.00800           0
     24681 TIP3     3627     TIP3     H2       HT       0.417000       1.00800           0
     24682 TIP3     3628     TIP3     OH2      OT      -0.834000       15.9994           0
     24683 TIP3     3628     TIP3     H1       HT       0.417000       1.00800           0
     24684 TIP3     3628     TIP3     H2       HT       0.417000       1.00800           0
     24685 TIP3     3629     TIP3     OH2      OT      -0.834000       15.9994           0
     24686 TIP3     3629     TIP3     H1       HT       0.417000       1.00800           0
     24687 TIP3     3629     TIP3     H2       HT       0.417000       1.00800           0
     24688 TIP3     3630     TIP3     OH2      OT      -0.834000       15.9994           0
     24689 TIP3     3630     TIP3     H1       HT       0.417000       1.00800           0
     24690 TIP3     3630     TIP3     H2       HT       0.417000       1.00800           0
     24691 TIP3     3631     TIP3     OH2      OT      -0.834000       15.9994           0
     24692 TIP3     3631     TIP3     H1       HT       0.417000       1.00800           0
     24693 TIP3     3631     TIP3     H2       HT       0.417000       1.00800           0
     24694 TIP3     3632     TIP3     OH2      OT      -0.834000       15.9994           0
     24695 TIP3     3632     TIP3     H1       HT       0.417000       1.00800           0
     24696 TIP3     3632     TIP3     H2       HT       0.417000       1.00800           0
     24697 TIP3     3633     TIP3     OH2      OT      -0.834000       15.9994           0
     24698 TIP3     3633     TIP3     H1       HT       0.417000       1.00800           0
     24699 TIP3     3633     TIP3     H2       HT       0.417000       1.00800           0
     24700 TIP3     3634     TIP3     OH2      OT      -0.834000       15.9994           0
     24701 TIP3     3634     TIP3     H1       HT       0.417000       1.00800           0
     24702 TIP3     3634     TIP3     H2       HT       0.417000       1.00800           0
     24703 TIP3     3635     TIP3     OH2      OT      -0.834000       15.9994           0
     24704 TIP3     3635     TIP3     H1       HT       0.417000       1.00800           0
     24705 TIP3     3635     TIP3     H2       HT       0.417000       1.00800           0
     24706 TIP3     3636     TIP3     OH2      OT      -0.834000       15.9994           0
     24707 TIP3     3636     TIP3     H1       HT       0.417000       1.00800           0
     24708 TIP3     3636     TIP3     H2       HT       0.417000       1.00800           0
     24709 TIP3     3637     TIP3     OH2      OT      -0.834000       15.9994           0
     24710 TIP3     3637     TIP3     H1       HT       0.417000       1.00800           0
     24711 TIP3     3637     TIP3     H2       HT       0.417000       1.00800           0
     24712 TIP3     3638     TIP3     OH2      OT      -0.834000       15.9994           0
     24713 TIP3     3638     TIP3     H1       HT       0.417000       1.00800           0
     24714 TIP3     3638     TIP3     H2       HT       0.417000       1.00800           0
     24715 TIP3     3639     TIP3     OH2      OT      -0.834000       15.9994           0
     24716 TIP3     3639     TIP3     H1       HT       0.417000       1.00800           0
     24717 TIP3     3639     TIP3     H2       HT       0.417000       1.00800           0
     24718 TIP3     3640     TIP3     OH2      OT      -0.834000       15.9994           0
     24719 TIP3     3640     TIP3     H1       HT       0.417000       1.00800           0
     24720 TIP3     3640     TIP3     H2       HT       0.417000       1.00800           0
     24721 TIP3     3641     TIP3     OH2      OT      -0.834000       15.9994           0
     24722 TIP3     3641     TIP3     H1       HT       0.417000       1.00800           0
     24723 TIP3     3641     TIP3     H2       HT       0.417000       1.00800           0
     24724 TIP3     3642     TIP3     OH2      OT      -0.834000       15.9994           0
     24725 TIP3     3642     TIP3     H1       HT       0.417000       1.00800           0
     24726 TIP3     3642     TIP3     H2       HT       0.417000       1.00800           0
     24727 TIP3     3643     TIP3     OH2      OT      -0.834000       15.9994           0
     24728 TIP3     3643     TIP3     H1       HT       0.417000       1.00800           0
     24729 TIP3     3643     TIP3     H2       HT       0.417000       1.00800           0
     24730 TIP3     3644     TIP3     OH2      OT      -0.834000       15.9994           0
     24731 TIP3     3644     TIP3     H1       HT       0.417000       1.00800           0
     24732 TIP3     3644     TIP3     H2       HT       0.417000       1.00800           0
     24733 TIP3     3645     TIP3     OH2      OT      -0.834000       15.9994           0
     24734 TIP3     3645     TIP3     H1       HT       0.417000       1.00800           0
     24735 TIP3     3645     TIP3     H2       HT       0.417000       1.00800           0
     24736 TIP3     3646     TIP3     OH2      OT      -0.834000       15.9994           0
     24737 TIP3     3646     TIP3     H1       HT       0.417000       1.00800           0
     24738 TIP3     3646     TIP3     H2       HT       0.417000       1.00800           0
     24739 TIP3     3647     TIP3     OH2      OT      -0.834000       15.9994           0
     24740 TIP3     3647     TIP3     H1       HT       0.417000       1.00800           0
     24741 TIP3     3647     TIP3     H2       HT       0.417000       1.00800           0
     24742 TIP3     3648     TIP3     OH2      OT      -0.834000       15.9994           0
     24743 TIP3     3648     TIP3     H1       HT       0.417000       1.00800           0
     24744 TIP3     3648     TIP3     H2       HT       0.417000       1.00800           0
     24745 TIP3     3649     TIP3     OH2      OT      -0.834000       15.9994           0
     24746 TIP3     3649     TIP3     H1       HT       0.417000       1.00800           0
     24747 TIP3     3649     TIP3     H2       HT       0.417000       1.00800           0
     24748 TIP3     3650     TIP3     OH2      OT      -0.834000       15.9994           0
     24749 TIP3     3650     TIP3     H1       HT       0.417000       1.00800           0
     24750 TIP3     3650     TIP3     H2       HT       0.417000       1.00800           0
     24751 TIP3     3651     TIP3     OH2      OT      -0.834000       15.9994           0
     24752 TIP3     3651     TIP3     H1       HT       0.417000       1.00800           0
     24753 TIP3     3651     TIP3     H2       HT       0.417000       1.00800           0
     24754 TIP3     3652     TIP3     OH2      OT      -0.834000       15.9994           0
     24755 TIP3     3652     TIP3     H1       HT       0.417000       1.00800           0
     24756 TIP3     3652     TIP3     H2       HT       0.417000       1.00800           0
     24757 TIP3     3653     TIP3     OH2      OT      -0.834000       15.9994           0
     24758 TIP3     3653     TIP3     H1       HT       0.417000       1.00800           0
     24759 TIP3     3653     TIP3     H2       HT       0.417000       1.00800           0
     24760 TIP3     3654     TIP3     OH2      OT      -0.834000       15.9994           0
     24761 TIP3     3654     TIP3     H1       HT       0.417000       1.00800           0
     24762 TIP3     3654     TIP3     H2       HT       0.417000       1.00800           0
     24763 TIP3     3655     TIP3     OH2      OT      -0.834000       15.9994           0
     24764 TIP3     3655     TIP3     H1       HT       0.417000       1.00800           0
     24765 TIP3     3655     TIP3     H2       HT       0.417000       1.00800           0
     24766 TIP3     3656     TIP3     OH2      OT      -0.834000       15.9994           0
     24767 TIP3     3656     TIP3     H1       HT       0.417000       1.00800           0
     24768 TIP3     3656     TIP3     H2       HT       0.417000       1.00800           0
     24769 TIP3     3657     TIP3     OH2      OT      -0.834000       15.9994           0
     24770 TIP3     3657     TIP3     H1       HT       0.417000       1.00800           0
     24771 TIP3     3657     TIP3     H2       HT       0.417000       1.00800           0
     24772 TIP3     3658     TIP3     OH2      OT      -0.834000       15.9994           0
     24773 TIP3     3658     TIP3     H1       HT       0.417000       1.00800           0
     24774 TIP3     3658     TIP3     H2       HT       0.417000       1.00800           0
     24775 TIP3     3659     TIP3     OH2      OT      -0.834000       15.9994           0
     24776 TIP3     3659     TIP3     H1       HT       0.417000       1.00800           0
     24777 TIP3     3659     TIP3     H2       HT       0.417000       1.00800           0
     24778 TIP3     3660     TIP3     OH2      OT      -0.834000       15.9994           0
     24779 TIP3     3660     TIP3     H1       HT       0.417000       1.00800           0
     24780 TIP3     3660     TIP3     H2       HT       0.417000       1.00800           0
     24781 TIP3     3661     TIP3     OH2      OT      -0.834000       15.9994           0
     24782 TIP3     3661     TIP3     H1       HT       0.417000       1.00800           0
     24783 TIP3     3661     TIP3     H2       HT       0.417000       1.00800           0
     24784 TIP3     3662     TIP3     OH2      OT      -0.834000       15.9994           0
     24785 TIP3     3662     TIP3     H1       HT       0.417000       1.00800           0
     24786 TIP3     3662     TIP3     H2       HT       0.417000       1.00800           0
     24787 TIP3     3663     TIP3     OH2      OT      -0.834000       15.9994           0
     24788 TIP3     3663     TIP3     H1       HT       0.417000       1.00800           0
     24789 TIP3     3663     TIP3     H2       HT       0.417000       1.00800           0
     24790 TIP3     3664     TIP3     OH2      OT      -0.834000       15.9994           0
     24791 TIP3     3664     TIP3     H1       HT       0.417000       1.00800           0
     24792 TIP3     3664     TIP3     H2       HT       0.417000       1.00800           0
     24793 TIP3     3665     TIP3     OH2      OT      -0.834000       15.9994           0
     24794 TIP3     3665     TIP3     H1       HT       0.417000       1.00800           0
     24795 TIP3     3665     TIP3     H2       HT       0.417000       1.00800           0
     24796 TIP3     3666     TIP3     OH2      OT      -0.834000       15.9994           0
     24797 TIP3     3666     TIP3     H1       HT       0.417000       1.00800           0
     24798 TIP3     3666     TIP3     H2       HT       0.417000       1.00800           0
     24799 TIP3     3667     TIP3     OH2      OT      -0.834000       15.9994           0
     24800 TIP3     3667     TIP3     H1       HT       0.417000       1.00800           0
     24801 TIP3     3667     TIP3     H2       HT       0.417000       1.00800           0
     24802 TIP3     3668     TIP3     OH2      OT      -0.834000       15.9994           0
     24803 TIP3     3668     TIP3     H1       HT       0.417000       1.00800           0
     24804 TIP3     3668     TIP3     H2       HT       0.417000       1.00800           0
     24805 TIP3     3669     TIP3     OH2      OT      -0.834000       15.9994           0
     24806 TIP3     3669     TIP3     H1       HT       0.417000       1.00800           0
     24807 TIP3     3669     TIP3     H2       HT       0.417000       1.00800           0
     24808 TIP3     3670     TIP3     OH2      OT      -0.834000       15.9994           0
     24809 TIP3     3670     TIP3     H1       HT       0.417000       1.00800           0
     24810 TIP3     3670     TIP3     H2       HT       0.417000       1.00800           0
     24811 TIP3     3671     TIP3     OH2      OT      -0.834000       15.9994           0
     24812 TIP3     3671     TIP3     H1       HT       0.417000       1.00800           0
     24813 TIP3     3671     TIP3     H2       HT       0.417000       1.00800           0
     24814 TIP3     3672     TIP3     OH2      OT      -0.834000       15.9994           0
     24815 TIP3     3672     TIP3     H1       HT       0.417000       1.00800           0
     24816 TIP3     3672     TIP3     H2       HT       0.417000       1.00800           0
     24817 TIP3     3673     TIP3     OH2      OT      -0.834000       15.9994           0
     24818 TIP3     3673     TIP3     H1       HT       0.417000       1.00800           0
     24819 TIP3     3673     TIP3     H2       HT       0.417000       1.00800           0
     24820 TIP3     3674     TIP3     OH2      OT      -0.834000       15.9994           0
     24821 TIP3     3674     TIP3     H1       HT       0.417000       1.00800           0
     24822 TIP3     3674     TIP3     H2       HT       0.417000       1.00800           0
     24823 TIP3     3675     TIP3     OH2      OT      -0.834000       15.9994           0
     24824 TIP3     3675     TIP3     H1       HT       0.417000       1.00800           0
     24825 TIP3     3675     TIP3     H2       HT       0.417000       1.00800           0
     24826 TIP3     3676     TIP3     OH2      OT      -0.834000       15.9994           0
     24827 TIP3     3676     TIP3     H1       HT       0.417000       1.00800           0
     24828 TIP3     3676     TIP3     H2       HT       0.417000       1.00800           0
     24829 TIP3     3677     TIP3     OH2      OT      -0.834000       15.9994           0
     24830 TIP3     3677     TIP3     H1       HT       0.417000       1.00800           0
     24831 TIP3     3677     TIP3     H2       HT       0.417000       1.00800           0
     24832 TIP3     3678     TIP3     OH2      OT      -0.834000       15.9994           0
     24833 TIP3     3678     TIP3     H1       HT       0.417000       1.00800           0
     24834 TIP3     3678     TIP3     H2       HT       0.417000       1.00800           0
     24835 TIP3     3679     TIP3     OH2      OT      -0.834000       15.9994           0
     24836 TIP3     3679     TIP3     H1       HT       0.417000       1.00800           0
     24837 TIP3     3679     TIP3     H2       HT       0.417000       1.00800           0
     24838 TIP3     3680     TIP3     OH2      OT      -0.834000       15.9994           0
     24839 TIP3     3680     TIP3     H1       HT       0.417000       1.00800           0
     24840 TIP3     3680     TIP3     H2       HT       0.417000       1.00800           0
     24841 TIP3     3681     TIP3     OH2      OT      -0.834000       15.9994           0
     24842 TIP3     3681     TIP3     H1       HT       0.417000       1.00800           0
     24843 TIP3     3681     TIP3     H2       HT       0.417000       1.00800           0
     24844 TIP3     3682     TIP3     OH2      OT      -0.834000       15.9994           0
     24845 TIP3     3682     TIP3     H1       HT       0.417000       1.00800           0
     24846 TIP3     3682     TIP3     H2       HT       0.417000       1.00800           0
     24847 TIP3     3683     TIP3     OH2      OT      -0.834000       15.9994           0
     24848 TIP3     3683     TIP3     H1       HT       0.417000       1.00800           0
     24849 TIP3     3683     TIP3     H2       HT       0.417000       1.00800           0
     24850 TIP3     3684     TIP3     OH2      OT      -0.834000       15.9994           0
     24851 TIP3     3684     TIP3     H1       HT       0.417000       1.00800           0
     24852 TIP3     3684     TIP3     H2       HT       0.417000       1.00800           0
     24853 TIP3     3685     TIP3     OH2      OT      -0.834000       15.9994           0
     24854 TIP3     3685     TIP3     H1       HT       0.417000       1.00800           0
     24855 TIP3     3685     TIP3     H2       HT       0.417000       1.00800           0
     24856 TIP3     3686     TIP3     OH2      OT      -0.834000       15.9994           0
     24857 TIP3     3686     TIP3     H1       HT       0.417000       1.00800           0
     24858 TIP3     3686     TIP3     H2       HT       0.417000       1.00800           0
     24859 TIP3     3687     TIP3     OH2      OT      -0.834000       15.9994           0
     24860 TIP3     3687     TIP3     H1       HT       0.417000       1.00800           0
     24861 TIP3     3687     TIP3     H2       HT       0.417000       1.00800           0
     24862 TIP3     3688     TIP3     OH2      OT      -0.834000       15.9994           0
     24863 TIP3     3688     TIP3     H1       HT       0.417000       1.00800           0
     24864 TIP3     3688     TIP3     H2       HT       0.417000       1.00800           0
     24865 TIP3     3689     TIP3     OH2      OT      -0.834000       15.9994           0
     24866 TIP3     3689     TIP3     H1       HT       0.417000       1.00800           0
     24867 TIP3     3689     TIP3     H2       HT       0.417000       1.00800           0
     24868 TIP3     3690     TIP3     OH2      OT      -0.834000       15.9994           0
     24869 TIP3     3690     TIP3     H1       HT       0.417000       1.00800           0
     24870 TIP3     3690     TIP3     H2       HT       0.417000       1.00800           0
     24871 TIP3     3691     TIP3     OH2      OT      -0.834000       15.9994           0
     24872 TIP3     3691     TIP3     H1       HT       0.417000       1.00800           0
     24873 TIP3     3691     TIP3     H2       HT       0.417000       1.00800           0
     24874 TIP3     3692     TIP3     OH2      OT      -0.834000       15.9994           0
     24875 TIP3     3692     TIP3     H1       HT       0.417000       1.00800           0
     24876 TIP3     3692     TIP3     H2       HT       0.417000       1.00800           0
     24877 TIP3     3693     TIP3     OH2      OT      -0.834000       15.9994           0
     24878 TIP3     3693     TIP3     H1       HT       0.417000       1.00800           0
     24879 TIP3     3693     TIP3     H2       HT       0.417000       1.00800           0
     24880 TIP3     3694     TIP3     OH2      OT      -0.834000       15.9994           0
     24881 TIP3     3694     TIP3     H1       HT       0.417000       1.00800           0
     24882 TIP3     3694     TIP3     H2       HT       0.417000       1.00800           0
     24883 TIP3     3695     TIP3     OH2      OT      -0.834000       15.9994           0
     24884 TIP3     3695     TIP3     H1       HT       0.417000       1.00800           0
     24885 TIP3     3695     TIP3     H2       HT       0.417000       1.00800           0
     24886 TIP3     3696     TIP3     OH2      OT      -0.834000       15.9994           0
     24887 TIP3     3696     TIP3     H1       HT       0.417000       1.00800           0
     24888 TIP3     3696     TIP3     H2       HT       0.417000       1.00800           0
     24889 TIP3     3697     TIP3     OH2      OT      -0.834000       15.9994           0
     24890 TIP3     3697     TIP3     H1       HT       0.417000       1.00800           0
     24891 TIP3     3697     TIP3     H2       HT       0.417000       1.00800           0
     24892 TIP3     3698     TIP3     OH2      OT      -0.834000       15.9994           0
     24893 TIP3     3698     TIP3     H1       HT       0.417000       1.00800           0
     24894 TIP3     3698     TIP3     H2       HT       0.417000       1.00800           0
     24895 TIP3     3699     TIP3     OH2      OT      -0.834000       15.9994           0
     24896 TIP3     3699     TIP3     H1       HT       0.417000       1.00800           0
     24897 TIP3     3699     TIP3     H2       HT       0.417000       1.00800           0
     24898 TIP3     3700     TIP3     OH2      OT      -0.834000       15.9994           0
     24899 TIP3     3700     TIP3     H1       HT       0.417000       1.00800           0
     24900 TIP3     3700     TIP3     H2       HT       0.417000       1.00800           0
     24901 TIP3     3701     TIP3     OH2      OT      -0.834000       15.9994           0
     24902 TIP3     3701     TIP3     H1       HT       0.417000       1.00800           0
     24903 TIP3     3701     TIP3     H2       HT       0.417000       1.00800           0
     24904 TIP3     3702     TIP3     OH2      OT      -0.834000       15.9994           0
     24905 TIP3     3702     TIP3     H1       HT       0.417000       1.00800           0
     24906 TIP3     3702     TIP3     H2       HT       0.417000       1.00800           0
     24907 TIP3     3703     TIP3     OH2      OT      -0.834000       15.9994           0
     24908 TIP3     3703     TIP3     H1       HT       0.417000       1.00800           0
     24909 TIP3     3703     TIP3     H2       HT       0.417000       1.00800           0
     24910 TIP3     3704     TIP3     OH2      OT      -0.834000       15.9994           0
     24911 TIP3     3704     TIP3     H1       HT       0.417000       1.00800           0
     24912 TIP3     3704     TIP3     H2       HT       0.417000       1.00800           0
     24913 TIP3     3705     TIP3     OH2      OT      -0.834000       15.9994           0
     24914 TIP3     3705     TIP3     H1       HT       0.417000       1.00800           0
     24915 TIP3     3705     TIP3     H2       HT       0.417000       1.00800           0
     24916 TIP3     3706     TIP3     OH2      OT      -0.834000       15.9994           0
     24917 TIP3     3706     TIP3     H1       HT       0.417000       1.00800           0
     24918 TIP3     3706     TIP3     H2       HT       0.417000       1.00800           0
     24919 TIP3     3707     TIP3     OH2      OT      -0.834000       15.9994           0
     24920 TIP3     3707     TIP3     H1       HT       0.417000       1.00800           0
     24921 TIP3     3707     TIP3     H2       HT       0.417000       1.00800           0
     24922 TIP3     3708     TIP3     OH2      OT      -0.834000       15.9994           0
     24923 TIP3     3708     TIP3     H1       HT       0.417000       1.00800           0
     24924 TIP3     3708     TIP3     H2       HT       0.417000       1.00800           0
     24925 TIP3     3709     TIP3     OH2      OT      -0.834000       15.9994           0
     24926 TIP3     3709     TIP3     H1       HT       0.417000       1.00800           0
     24927 TIP3     3709     TIP3     H2       HT       0.417000       1.00800           0
     24928 TIP3     3710     TIP3     OH2      OT      -0.834000       15.9994           0
     24929 TIP3     3710     TIP3     H1       HT       0.417000       1.00800           0
     24930 TIP3     3710     TIP3     H2       HT       0.417000       1.00800           0
     24931 TIP3     3711     TIP3     OH2      OT      -0.834000       15.9994           0
     24932 TIP3     3711     TIP3     H1       HT       0.417000       1.00800           0
     24933 TIP3     3711     TIP3     H2       HT       0.417000       1.00800           0
     24934 TIP3     3712     TIP3     OH2      OT      -0.834000       15.9994           0
     24935 TIP3     3712     TIP3     H1       HT       0.417000       1.00800           0
     24936 TIP3     3712     TIP3     H2       HT       0.417000       1.00800           0
     24937 TIP3     3713     TIP3     OH2      OT      -0.834000       15.9994           0
     24938 TIP3     3713     TIP3     H1       HT       0.417000       1.00800           0
     24939 TIP3     3713     TIP3     H2       HT       0.417000       1.00800           0
     24940 TIP3     3714     TIP3     OH2      OT      -0.834000       15.9994           0
     24941 TIP3     3714     TIP3     H1       HT       0.417000       1.00800           0
     24942 TIP3     3714     TIP3     H2       HT       0.417000       1.00800           0
     24943 TIP3     3715     TIP3     OH2      OT      -0.834000       15.9994           0
     24944 TIP3     3715     TIP3     H1       HT       0.417000       1.00800           0
     24945 TIP3     3715     TIP3     H2       HT       0.417000       1.00800           0
     24946 TIP3     3716     TIP3     OH2      OT      -0.834000       15.9994           0
     24947 TIP3     3716     TIP3     H1       HT       0.417000       1.00800           0
     24948 TIP3     3716     TIP3     H2       HT       0.417000       1.00800           0
     24949 TIP3     3717     TIP3     OH2      OT      -0.834000       15.9994           0
     24950 TIP3     3717     TIP3     H1       HT       0.417000       1.00800           0
     24951 TIP3     3717     TIP3     H2       HT       0.417000       1.00800           0
     24952 TIP3     3718     TIP3     OH2      OT      -0.834000       15.9994           0
     24953 TIP3     3718     TIP3     H1       HT       0.417000       1.00800           0
     24954 TIP3     3718     TIP3     H2       HT       0.417000       1.00800           0
     24955 TIP3     3719     TIP3     OH2      OT      -0.834000       15.9994           0
     24956 TIP3     3719     TIP3     H1       HT       0.417000       1.00800           0
     24957 TIP3     3719     TIP3     H2       HT       0.417000       1.00800           0
     24958 TIP3     3720     TIP3     OH2      OT      -0.834000       15.9994           0
     24959 TIP3     3720     TIP3     H1       HT       0.417000       1.00800           0
     24960 TIP3     3720     TIP3     H2       HT       0.417000       1.00800           0
     24961 TIP3     3721     TIP3     OH2      OT      -0.834000       15.9994           0
     24962 TIP3     3721     TIP3     H1       HT       0.417000       1.00800           0
     24963 TIP3     3721     TIP3     H2       HT       0.417000       1.00800           0
     24964 TIP3     3722     TIP3     OH2      OT      -0.834000       15.9994           0
     24965 TIP3     3722     TIP3     H1       HT       0.417000       1.00800           0
     24966 TIP3     3722     TIP3     H2       HT       0.417000       1.00800           0
     24967 TIP3     3723     TIP3     OH2      OT      -0.834000       15.9994           0
     24968 TIP3     3723     TIP3     H1       HT       0.417000       1.00800           0
     24969 TIP3     3723     TIP3     H2       HT       0.417000       1.00800           0
     24970 TIP3     3724     TIP3     OH2      OT      -0.834000       15.9994           0
     24971 TIP3     3724     TIP3     H1       HT       0.417000       1.00800           0
     24972 TIP3     3724     TIP3     H2       HT       0.417000       1.00800           0
     24973 TIP3     3725     TIP3     OH2      OT      -0.834000       15.9994           0
     24974 TIP3     3725     TIP3     H1       HT       0.417000       1.00800           0
     24975 TIP3     3725     TIP3     H2       HT       0.417000       1.00800           0
     24976 TIP3     3726     TIP3     OH2      OT      -0.834000       15.9994           0
     24977 TIP3     3726     TIP3     H1       HT       0.417000       1.00800           0
     24978 TIP3     3726     TIP3     H2       HT       0.417000       1.00800           0
     24979 TIP3     3727     TIP3     OH2      OT      -0.834000       15.9994           0
     24980 TIP3     3727     TIP3     H1       HT       0.417000       1.00800           0
     24981 TIP3     3727     TIP3     H2       HT       0.417000       1.00800           0
     24982 TIP3     3728     TIP3     OH2      OT      -0.834000       15.9994           0
     24983 TIP3     3728     TIP3     H1       HT       0.417000       1.00800           0
     24984 TIP3     3728     TIP3     H2       HT       0.417000       1.00800           0
     24985 TIP3     3729     TIP3     OH2      OT      -0.834000       15.9994           0
     24986 TIP3     3729     TIP3     H1       HT       0.417000       1.00800           0
     24987 TIP3     3729     TIP3     H2       HT       0.417000       1.00800           0
     24988 TIP3     3730     TIP3     OH2      OT      -0.834000       15.9994           0
     24989 TIP3     3730     TIP3     H1       HT       0.417000       1.00800           0
     24990 TIP3     3730     TIP3     H2       HT       0.417000       1.00800           0
     24991 TIP3     3731     TIP3     OH2      OT      -0.834000       15.9994           0
     24992 TIP3     3731     TIP3     H1       HT       0.417000       1.00800           0
     24993 TIP3     3731     TIP3     H2       HT       0.417000       1.00800           0
     24994 TIP3     3732     TIP3     OH2      OT      -0.834000       15.9994           0
     24995 TIP3     3732     TIP3     H1       HT       0.417000       1.00800           0
     24996 TIP3     3732     TIP3     H2       HT       0.417000       1.00800           0
     24997 TIP3     3733     TIP3     OH2      OT      -0.834000       15.9994           0
     24998 TIP3     3733     TIP3     H1       HT       0.417000       1.00800           0
     24999 TIP3     3733     TIP3     H2       HT       0.417000       1.00800           0
     25000 TIP3     3734     TIP3     OH2      OT      -0.834000       15.9994           0
     25001 TIP3     3734     TIP3     H1       HT       0.417000       1.00800           0
     25002 TIP3     3734     TIP3     H2       HT       0.417000       1.00800           0
     25003 TIP3     3735     TIP3     OH2      OT      -0.834000       15.9994           0
     25004 TIP3     3735     TIP3     H1       HT       0.417000       1.00800           0
     25005 TIP3     3735     TIP3     H2       HT       0.417000       1.00800           0
     25006 TIP3     3736     TIP3     OH2      OT      -0.834000       15.9994           0
     25007 TIP3     3736     TIP3     H1       HT       0.417000       1.00800           0
     25008 TIP3     3736     TIP3     H2       HT       0.417000       1.00800           0
     25009 TIP3     3737     TIP3     OH2      OT      -0.834000       15.9994           0
     25010 TIP3     3737     TIP3     H1       HT       0.417000       1.00800           0
     25011 TIP3     3737     TIP3     H2       HT       0.417000       1.00800           0
     25012 TIP3     3738     TIP3     OH2      OT      -0.834000       15.9994           0
     25013 TIP3     3738     TIP3     H1       HT       0.417000       1.00800           0
     25014 TIP3     3738     TIP3     H2       HT       0.417000       1.00800           0
     25015 TIP3     3739     TIP3     OH2      OT      -0.834000       15.9994           0
     25016 TIP3     3739     TIP3     H1       HT       0.417000       1.00800           0
     25017 TIP3     3739     TIP3     H2       HT       0.417000       1.00800           0
     25018 TIP3     3740     TIP3     OH2      OT      -0.834000       15.9994           0
     25019 TIP3     3740     TIP3     H1       HT       0.417000       1.00800           0
     25020 TIP3     3740     TIP3     H2       HT       0.417000       1.00800           0
     25021 TIP3     3741     TIP3     OH2      OT      -0.834000       15.9994           0
     25022 TIP3     3741     TIP3     H1       HT       0.417000       1.00800           0
     25023 TIP3     3741     TIP3     H2       HT       0.417000       1.00800           0
     25024 TIP3     3742     TIP3     OH2      OT      -0.834000       15.9994           0
     25025 TIP3     3742     TIP3     H1       HT       0.417000       1.00800           0
     25026 TIP3     3742     TIP3     H2       HT       0.417000       1.00800           0
     25027 TIP3     3743     TIP3     OH2      OT      -0.834000       15.9994           0
     25028 TIP3     3743     TIP3     H1       HT       0.417000       1.00800           0
     25029 TIP3     3743     TIP3     H2       HT       0.417000       1.00800           0
     25030 TIP3     3744     TIP3     OH2      OT      -0.834000       15.9994           0
     25031 TIP3     3744     TIP3     H1       HT       0.417000       1.00800           0
     25032 TIP3     3744     TIP3     H2       HT       0.417000       1.00800           0
     25033 TIP3     3745     TIP3     OH2      OT      -0.834000       15.9994           0
     25034 TIP3     3745     TIP3     H1       HT       0.417000       1.00800           0
     25035 TIP3     3745     TIP3     H2       HT       0.417000       1.00800           0
     25036 TIP3     3746     TIP3     OH2      OT      -0.834000       15.9994           0
     25037 TIP3     3746     TIP3     H1       HT       0.417000       1.00800           0
     25038 TIP3     3746     TIP3     H2       HT       0.417000       1.00800           0
     25039 TIP3     3747     TIP3     OH2      OT      -0.834000       15.9994           0
     25040 TIP3     3747     TIP3     H1       HT       0.417000       1.00800           0
     25041 TIP3     3747     TIP3     H2       HT       0.417000       1.00800           0
     25042 TIP3     3748     TIP3     OH2      OT      -0.834000       15.9994           0
     25043 TIP3     3748     TIP3     H1       HT       0.417000       1.00800           0
     25044 TIP3     3748     TIP3     H2       HT       0.417000       1.00800           0
     25045 TIP3     3749     TIP3     OH2      OT      -0.834000       15.9994           0
     25046 TIP3     3749     TIP3     H1       HT       0.417000       1.00800           0
     25047 TIP3     3749     TIP3     H2       HT       0.417000       1.00800           0
     25048 TIP3     3750     TIP3     OH2      OT      -0.834000       15.9994           0
     25049 TIP3     3750     TIP3     H1       HT       0.417000       1.00800           0
     25050 TIP3     3750     TIP3     H2       HT       0.417000       1.00800           0
     25051 TIP3     3751     TIP3     OH2      OT      -0.834000       15.9994           0
     25052 TIP3     3751     TIP3     H1       HT       0.417000       1.00800           0
     25053 TIP3     3751     TIP3     H2       HT       0.417000       1.00800           0
     25054 TIP3     3752     TIP3     OH2      OT      -0.834000       15.9994           0
     25055 TIP3     3752     TIP3     H1       HT       0.417000       1.00800           0
     25056 TIP3     3752     TIP3     H2       HT       0.417000       1.00800           0
     25057 TIP3     3753     TIP3     OH2      OT      -0.834000       15.9994           0
     25058 TIP3     3753     TIP3     H1       HT       0.417000       1.00800           0
     25059 TIP3     3753     TIP3     H2       HT       0.417000       1.00800           0
     25060 TIP3     3754     TIP3     OH2      OT      -0.834000       15.9994           0
     25061 TIP3     3754     TIP3     H1       HT       0.417000       1.00800           0
     25062 TIP3     3754     TIP3     H2       HT       0.417000       1.00800           0
     25063 TIP3     3755     TIP3     OH2      OT      -0.834000       15.9994           0
     25064 TIP3     3755     TIP3     H1       HT       0.417000       1.00800           0
     25065 TIP3     3755     TIP3     H2       HT       0.417000       1.00800           0
     25066 TIP3     3756     TIP3     OH2      OT      -0.834000       15.9994           0
     25067 TIP3     3756     TIP3     H1       HT       0.417000       1.00800           0
     25068 TIP3     3756     TIP3     H2       HT       0.417000       1.00800           0
     25069 TIP3     3757     TIP3     OH2      OT      -0.834000       15.9994           0
     25070 TIP3     3757     TIP3     H1       HT       0.417000       1.00800           0
     25071 TIP3     3757     TIP3     H2       HT       0.417000       1.00800           0
     25072 TIP3     3758     TIP3     OH2      OT      -0.834000       15.9994           0
     25073 TIP3     3758     TIP3     H1       HT       0.417000       1.00800           0
     25074 TIP3     3758     TIP3     H2       HT       0.417000       1.00800           0
     25075 TIP3     3759     TIP3     OH2      OT      -0.834000       15.9994           0
     25076 TIP3     3759     TIP3     H1       HT       0.417000       1.00800           0
     25077 TIP3     3759     TIP3     H2       HT       0.417000       1.00800           0
     25078 TIP3     3760     TIP3     OH2      OT      -0.834000       15.9994           0
     25079 TIP3     3760     TIP3     H1       HT       0.417000       1.00800           0
     25080 TIP3     3760     TIP3     H2       HT       0.417000       1.00800           0
     25081 TIP3     3761     TIP3     OH2      OT      -0.834000       15.9994           0
     25082 TIP3     3761     TIP3     H1       HT       0.417000       1.00800           0
     25083 TIP3     3761     TIP3     H2       HT       0.417000       1.00800           0
     25084 TIP3     3762     TIP3     OH2      OT      -0.834000       15.9994           0
     25085 TIP3     3762     TIP3     H1       HT       0.417000       1.00800           0
     25086 TIP3     3762     TIP3     H2       HT       0.417000       1.00800           0
     25087 TIP3     3763     TIP3     OH2      OT      -0.834000       15.9994           0
     25088 TIP3     3763     TIP3     H1       HT       0.417000       1.00800           0
     25089 TIP3     3763     TIP3     H2       HT       0.417000       1.00800           0
     25090 TIP3     3764     TIP3     OH2      OT      -0.834000       15.9994           0
     25091 TIP3     3764     TIP3     H1       HT       0.417000       1.00800           0
     25092 TIP3     3764     TIP3     H2       HT       0.417000       1.00800           0
     25093 TIP3     3765     TIP3     OH2      OT      -0.834000       15.9994           0
     25094 TIP3     3765     TIP3     H1       HT       0.417000       1.00800           0
     25095 TIP3     3765     TIP3     H2       HT       0.417000       1.00800           0
     25096 TIP3     3766     TIP3     OH2      OT      -0.834000       15.9994           0
     25097 TIP3     3766     TIP3     H1       HT       0.417000       1.00800           0
     25098 TIP3     3766     TIP3     H2       HT       0.417000       1.00800           0
     25099 TIP3     3767     TIP3     OH2      OT      -0.834000       15.9994           0
     25100 TIP3     3767     TIP3     H1       HT       0.417000       1.00800           0
     25101 TIP3     3767     TIP3     H2       HT       0.417000       1.00800           0
     25102 TIP3     3768     TIP3     OH2      OT      -0.834000       15.9994           0
     25103 TIP3     3768     TIP3     H1       HT       0.417000       1.00800           0
     25104 TIP3     3768     TIP3     H2       HT       0.417000       1.00800           0
     25105 TIP3     3769     TIP3     OH2      OT      -0.834000       15.9994           0
     25106 TIP3     3769     TIP3     H1       HT       0.417000       1.00800           0
     25107 TIP3     3769     TIP3     H2       HT       0.417000       1.00800           0
     25108 TIP3     3770     TIP3     OH2      OT      -0.834000       15.9994           0
     25109 TIP3     3770     TIP3     H1       HT       0.417000       1.00800           0
     25110 TIP3     3770     TIP3     H2       HT       0.417000       1.00800           0
     25111 TIP3     3771     TIP3     OH2      OT      -0.834000       15.9994           0
     25112 TIP3     3771     TIP3     H1       HT       0.417000       1.00800           0
     25113 TIP3     3771     TIP3     H2       HT       0.417000       1.00800           0
     25114 TIP3     3772     TIP3     OH2      OT      -0.834000       15.9994           0
     25115 TIP3     3772     TIP3     H1       HT       0.417000       1.00800           0
     25116 TIP3     3772     TIP3     H2       HT       0.417000       1.00800           0
     25117 TIP3     3773     TIP3     OH2      OT      -0.834000       15.9994           0
     25118 TIP3     3773     TIP3     H1       HT       0.417000       1.00800           0
     25119 TIP3     3773     TIP3     H2       HT       0.417000       1.00800           0
     25120 TIP3     3774     TIP3     OH2      OT      -0.834000       15.9994           0
     25121 TIP3     3774     TIP3     H1       HT       0.417000       1.00800           0
     25122 TIP3     3774     TIP3     H2       HT       0.417000       1.00800           0
     25123 TIP3     3775     TIP3     OH2      OT      -0.834000       15.9994           0
     25124 TIP3     3775     TIP3     H1       HT       0.417000       1.00800           0
     25125 TIP3     3775     TIP3     H2       HT       0.417000       1.00800           0
     25126 TIP3     3776     TIP3     OH2      OT      -0.834000       15.9994           0
     25127 TIP3     3776     TIP3     H1       HT       0.417000       1.00800           0
     25128 TIP3     3776     TIP3     H2       HT       0.417000       1.00800           0
     25129 TIP3     3777     TIP3     OH2      OT      -0.834000       15.9994           0
     25130 TIP3     3777     TIP3     H1       HT       0.417000       1.00800           0
     25131 TIP3     3777     TIP3     H2       HT       0.417000       1.00800           0
     25132 TIP3     3778     TIP3     OH2      OT      -0.834000       15.9994           0
     25133 TIP3     3778     TIP3     H1       HT       0.417000       1.00800           0
     25134 TIP3     3778     TIP3     H2       HT       0.417000       1.00800           0
     25135 TIP3     3779     TIP3     OH2      OT      -0.834000       15.9994           0
     25136 TIP3     3779     TIP3     H1       HT       0.417000       1.00800           0
     25137 TIP3     3779     TIP3     H2       HT       0.417000       1.00800           0
     25138 TIP3     3780     TIP3     OH2      OT      -0.834000       15.9994           0
     25139 TIP3     3780     TIP3     H1       HT       0.417000       1.00800           0
     25140 TIP3     3780     TIP3     H2       HT       0.417000       1.00800           0
     25141 TIP3     3781     TIP3     OH2      OT      -0.834000       15.9994           0
     25142 TIP3     3781     TIP3     H1       HT       0.417000       1.00800           0
     25143 TIP3     3781     TIP3     H2       HT       0.417000       1.00800           0
     25144 TIP3     3782     TIP3     OH2      OT      -0.834000       15.9994           0
     25145 TIP3     3782     TIP3     H1       HT       0.417000       1.00800           0
     25146 TIP3     3782     TIP3     H2       HT       0.417000       1.00800           0
     25147 TIP3     3783     TIP3     OH2      OT      -0.834000       15.9994           0
     25148 TIP3     3783     TIP3     H1       HT       0.417000       1.00800           0
     25149 TIP3     3783     TIP3     H2       HT       0.417000       1.00800           0
     25150 TIP3     3784     TIP3     OH2      OT      -0.834000       15.9994           0
     25151 TIP3     3784     TIP3     H1       HT       0.417000       1.00800           0
     25152 TIP3     3784     TIP3     H2       HT       0.417000       1.00800           0
     25153 TIP3     3785     TIP3     OH2      OT      -0.834000       15.9994           0
     25154 TIP3     3785     TIP3     H1       HT       0.417000       1.00800           0
     25155 TIP3     3785     TIP3     H2       HT       0.417000       1.00800           0
     25156 TIP3     3786     TIP3     OH2      OT      -0.834000       15.9994           0
     25157 TIP3     3786     TIP3     H1       HT       0.417000       1.00800           0
     25158 TIP3     3786     TIP3     H2       HT       0.417000       1.00800           0
     25159 TIP3     3787     TIP3     OH2      OT      -0.834000       15.9994           0
     25160 TIP3     3787     TIP3     H1       HT       0.417000       1.00800           0
     25161 TIP3     3787     TIP3     H2       HT       0.417000       1.00800           0
     25162 TIP3     3788     TIP3     OH2      OT      -0.834000       15.9994           0
     25163 TIP3     3788     TIP3     H1       HT       0.417000       1.00800           0
     25164 TIP3     3788     TIP3     H2       HT       0.417000       1.00800           0
     25165 TIP3     3789     TIP3     OH2      OT      -0.834000       15.9994           0
     25166 TIP3     3789     TIP3     H1       HT       0.417000       1.00800           0
     25167 TIP3     3789     TIP3     H2       HT       0.417000       1.00800           0
     25168 TIP3     3790     TIP3     OH2      OT      -0.834000       15.9994           0
     25169 TIP3     3790     TIP3     H1       HT       0.417000       1.00800           0
     25170 TIP3     3790     TIP3     H2       HT       0.417000       1.00800           0
     25171 TIP3     3791     TIP3     OH2      OT      -0.834000       15.9994           0
     25172 TIP3     3791     TIP3     H1       HT       0.417000       1.00800           0
     25173 TIP3     3791     TIP3     H2       HT       0.417000       1.00800           0
     25174 TIP3     3792     TIP3     OH2      OT      -0.834000       15.9994           0
     25175 TIP3     3792     TIP3     H1       HT       0.417000       1.00800           0
     25176 TIP3     3792     TIP3     H2       HT       0.417000       1.00800           0
     25177 TIP3     3793     TIP3     OH2      OT      -0.834000       15.9994           0
     25178 TIP3     3793     TIP3     H1       HT       0.417000       1.00800           0
     25179 TIP3     3793     TIP3     H2       HT       0.417000       1.00800           0
     25180 TIP3     3794     TIP3     OH2      OT      -0.834000       15.9994           0
     25181 TIP3     3794     TIP3     H1       HT       0.417000       1.00800           0
     25182 TIP3     3794     TIP3     H2       HT       0.417000       1.00800           0
     25183 TIP3     3795     TIP3     OH2      OT      -0.834000       15.9994           0
     25184 TIP3     3795     TIP3     H1       HT       0.417000       1.00800           0
     25185 TIP3     3795     TIP3     H2       HT       0.417000       1.00800           0
     25186 TIP3     3796     TIP3     OH2      OT      -0.834000       15.9994           0
     25187 TIP3     3796     TIP3     H1       HT       0.417000       1.00800           0
     25188 TIP3     3796     TIP3     H2       HT       0.417000       1.00800           0
     25189 TIP3     3797     TIP3     OH2      OT      -0.834000       15.9994           0
     25190 TIP3     3797     TIP3     H1       HT       0.417000       1.00800           0
     25191 TIP3     3797     TIP3     H2       HT       0.417000       1.00800           0
     25192 TIP3     3798     TIP3     OH2      OT      -0.834000       15.9994           0
     25193 TIP3     3798     TIP3     H1       HT       0.417000       1.00800           0
     25194 TIP3     3798     TIP3     H2       HT       0.417000       1.00800           0
     25195 TIP3     3799     TIP3     OH2      OT      -0.834000       15.9994           0
     25196 TIP3     3799     TIP3     H1       HT       0.417000       1.00800           0
     25197 TIP3     3799     TIP3     H2       HT       0.417000       1.00800           0
     25198 TIP3     3800     TIP3     OH2      OT      -0.834000       15.9994           0
     25199 TIP3     3800     TIP3     H1       HT       0.417000       1.00800           0
     25200 TIP3     3800     TIP3     H2       HT       0.417000       1.00800           0
     25201 TIP3     3801     TIP3     OH2      OT      -0.834000       15.9994           0
     25202 TIP3     3801     TIP3     H1       HT       0.417000       1.00800           0
     25203 TIP3     3801     TIP3     H2       HT       0.417000       1.00800           0
     25204 TIP3     3802     TIP3     OH2      OT      -0.834000       15.9994           0
     25205 TIP3     3802     TIP3     H1       HT       0.417000       1.00800           0
     25206 TIP3     3802     TIP3     H2       HT       0.417000       1.00800           0
     25207 TIP3     3803     TIP3     OH2      OT      -0.834000       15.9994           0
     25208 TIP3     3803     TIP3     H1       HT       0.417000       1.00800           0
     25209 TIP3     3803     TIP3     H2       HT       0.417000       1.00800           0
     25210 TIP3     3804     TIP3     OH2      OT      -0.834000       15.9994           0
     25211 TIP3     3804     TIP3     H1       HT       0.417000       1.00800           0
     25212 TIP3     3804     TIP3     H2       HT       0.417000       1.00800           0
     25213 TIP3     3805     TIP3     OH2      OT      -0.834000       15.9994           0
     25214 TIP3     3805     TIP3     H1       HT       0.417000       1.00800           0
     25215 TIP3     3805     TIP3     H2       HT       0.417000       1.00800           0
     25216 TIP3     3806     TIP3     OH2      OT      -0.834000       15.9994           0
     25217 TIP3     3806     TIP3     H1       HT       0.417000       1.00800           0
     25218 TIP3     3806     TIP3     H2       HT       0.417000       1.00800           0
     25219 TIP3     3807     TIP3     OH2      OT      -0.834000       15.9994           0
     25220 TIP3     3807     TIP3     H1       HT       0.417000       1.00800           0
     25221 TIP3     3807     TIP3     H2       HT       0.417000       1.00800           0
     25222 TIP3     3808     TIP3     OH2      OT      -0.834000       15.9994           0
     25223 TIP3     3808     TIP3     H1       HT       0.417000       1.00800           0
     25224 TIP3     3808     TIP3     H2       HT       0.417000       1.00800           0
     25225 TIP3     3809     TIP3     OH2      OT      -0.834000       15.9994           0
     25226 TIP3     3809     TIP3     H1       HT       0.417000       1.00800           0
     25227 TIP3     3809     TIP3     H2       HT       0.417000       1.00800           0
     25228 TIP3     3810     TIP3     OH2      OT      -0.834000       15.9994           0
     25229 TIP3     3810     TIP3     H1       HT       0.417000       1.00800           0
     25230 TIP3     3810     TIP3     H2       HT       0.417000       1.00800           0
     25231 TIP3     3811     TIP3     OH2      OT      -0.834000       15.9994           0
     25232 TIP3     3811     TIP3     H1       HT       0.417000       1.00800           0
     25233 TIP3     3811     TIP3     H2       HT       0.417000       1.00800           0
     25234 TIP3     3812     TIP3     OH2      OT      -0.834000       15.9994           0
     25235 TIP3     3812     TIP3     H1       HT       0.417000       1.00800           0
     25236 TIP3     3812     TIP3     H2       HT       0.417000       1.00800           0
     25237 TIP3     3813     TIP3     OH2      OT      -0.834000       15.9994           0
     25238 TIP3     3813     TIP3     H1       HT       0.417000       1.00800           0
     25239 TIP3     3813     TIP3     H2       HT       0.417000       1.00800           0
     25240 TIP3     3814     TIP3     OH2      OT      -0.834000       15.9994           0
     25241 TIP3     3814     TIP3     H1       HT       0.417000       1.00800           0
     25242 TIP3     3814     TIP3     H2       HT       0.417000       1.00800           0
     25243 TIP3     3815     TIP3     OH2      OT      -0.834000       15.9994           0
     25244 TIP3     3815     TIP3     H1       HT       0.417000       1.00800           0
     25245 TIP3     3815     TIP3     H2       HT       0.417000       1.00800           0
     25246 TIP3     3816     TIP3     OH2      OT      -0.834000       15.9994           0
     25247 TIP3     3816     TIP3     H1       HT       0.417000       1.00800           0
     25248 TIP3     3816     TIP3     H2       HT       0.417000       1.00800           0
     25249 TIP3     3817     TIP3     OH2      OT      -0.834000       15.9994           0
     25250 TIP3     3817     TIP3     H1       HT       0.417000       1.00800           0
     25251 TIP3     3817     TIP3     H2       HT       0.417000       1.00800           0
     25252 TIP3     3818     TIP3     OH2      OT      -0.834000       15.9994           0
     25253 TIP3     3818     TIP3     H1       HT       0.417000       1.00800           0
     25254 TIP3     3818     TIP3     H2       HT       0.417000       1.00800           0
     25255 TIP3     3819     TIP3     OH2      OT      -0.834000       15.9994           0
     25256 TIP3     3819     TIP3     H1       HT       0.417000       1.00800           0
     25257 TIP3     3819     TIP3     H2       HT       0.417000       1.00800           0
     25258 TIP3     3820     TIP3     OH2      OT      -0.834000       15.9994           0
     25259 TIP3     3820     TIP3     H1       HT       0.417000       1.00800           0
     25260 TIP3     3820     TIP3     H2       HT       0.417000       1.00800           0
     25261 TIP3     3821     TIP3     OH2      OT      -0.834000       15.9994           0
     25262 TIP3     3821     TIP3     H1       HT       0.417000       1.00800           0
     25263 TIP3     3821     TIP3     H2       HT       0.417000       1.00800           0
     25264 TIP3     3822     TIP3     OH2      OT      -0.834000       15.9994           0
     25265 TIP3     3822     TIP3     H1       HT       0.417000       1.00800           0
     25266 TIP3     3822     TIP3     H2       HT       0.417000       1.00800           0
     25267 TIP3     3823     TIP3     OH2      OT      -0.834000       15.9994           0
     25268 TIP3     3823     TIP3     H1       HT       0.417000       1.00800           0
     25269 TIP3     3823     TIP3     H2       HT       0.417000       1.00800           0
     25270 TIP3     3824     TIP3     OH2      OT      -0.834000       15.9994           0
     25271 TIP3     3824     TIP3     H1       HT       0.417000       1.00800           0
     25272 TIP3     3824     TIP3     H2       HT       0.417000       1.00800           0
     25273 TIP3     3825     TIP3     OH2      OT      -0.834000       15.9994           0
     25274 TIP3     3825     TIP3     H1       HT       0.417000       1.00800           0
     25275 TIP3     3825     TIP3     H2       HT       0.417000       1.00800           0
     25276 TIP3     3826     TIP3     OH2      OT      -0.834000       15.9994           0
     25277 TIP3     3826     TIP3     H1       HT       0.417000       1.00800           0
     25278 TIP3     3826     TIP3     H2       HT       0.417000       1.00800           0
     25279 TIP3     3827     TIP3     OH2      OT      -0.834000       15.9994           0
     25280 TIP3     3827     TIP3     H1       HT       0.417000       1.00800           0
     25281 TIP3     3827     TIP3     H2       HT       0.417000       1.00800           0
     25282 TIP3     3828     TIP3     OH2      OT      -0.834000       15.9994           0
     25283 TIP3     3828     TIP3     H1       HT       0.417000       1.00800           0
     25284 TIP3     3828     TIP3     H2       HT       0.417000       1.00800           0
     25285 TIP3     3829     TIP3     OH2      OT      -0.834000       15.9994           0
     25286 TIP3     3829     TIP3     H1       HT       0.417000       1.00800           0
     25287 TIP3     3829     TIP3     H2       HT       0.417000       1.00800           0
     25288 TIP3     3830     TIP3     OH2      OT      -0.834000       15.9994           0
     25289 TIP3     3830     TIP3     H1       HT       0.417000       1.00800           0
     25290 TIP3     3830     TIP3     H2       HT       0.417000       1.00800           0
     25291 TIP3     3831     TIP3     OH2      OT      -0.834000       15.9994           0
     25292 TIP3     3831     TIP3     H1       HT       0.417000       1.00800           0
     25293 TIP3     3831     TIP3     H2       HT       0.417000       1.00800           0
     25294 TIP3     3832     TIP3     OH2      OT      -0.834000       15.9994           0
     25295 TIP3     3832     TIP3     H1       HT       0.417000       1.00800           0
     25296 TIP3     3832     TIP3     H2       HT       0.417000       1.00800           0
     25297 TIP3     3833     TIP3     OH2      OT      -0.834000       15.9994           0
     25298 TIP3     3833     TIP3     H1       HT       0.417000       1.00800           0
     25299 TIP3     3833     TIP3     H2       HT       0.417000       1.00800           0
     25300 TIP3     3834     TIP3     OH2      OT      -0.834000       15.9994           0
     25301 TIP3     3834     TIP3     H1       HT       0.417000       1.00800           0
     25302 TIP3     3834     TIP3     H2       HT       0.417000       1.00800           0
     25303 TIP3     3835     TIP3     OH2      OT      -0.834000       15.9994           0
     25304 TIP3     3835     TIP3     H1       HT       0.417000       1.00800           0
     25305 TIP3     3835     TIP3     H2       HT       0.417000       1.00800           0
     25306 TIP3     3836     TIP3     OH2      OT      -0.834000       15.9994           0
     25307 TIP3     3836     TIP3     H1       HT       0.417000       1.00800           0
     25308 TIP3     3836     TIP3     H2       HT       0.417000       1.00800           0
     25309 TIP3     3837     TIP3     OH2      OT      -0.834000       15.9994           0
     25310 TIP3     3837     TIP3     H1       HT       0.417000       1.00800           0
     25311 TIP3     3837     TIP3     H2       HT       0.417000       1.00800           0
     25312 TIP3     3838     TIP3     OH2      OT      -0.834000       15.9994           0
     25313 TIP3     3838     TIP3     H1       HT       0.417000       1.00800           0
     25314 TIP3     3838     TIP3     H2       HT       0.417000       1.00800           0
     25315 TIP3     3839     TIP3     OH2      OT      -0.834000       15.9994           0
     25316 TIP3     3839     TIP3     H1       HT       0.417000       1.00800           0
     25317 TIP3     3839     TIP3     H2       HT       0.417000       1.00800           0
     25318 TIP3     3840     TIP3     OH2      OT      -0.834000       15.9994           0
     25319 TIP3     3840     TIP3     H1       HT       0.417000       1.00800           0
     25320 TIP3     3840     TIP3     H2       HT       0.417000       1.00800           0
     25321 TIP3     3841     TIP3     OH2      OT      -0.834000       15.9994           0
     25322 TIP3     3841     TIP3     H1       HT       0.417000       1.00800           0
     25323 TIP3     3841     TIP3     H2       HT       0.417000       1.00800           0
     25324 TIP3     3842     TIP3     OH2      OT      -0.834000       15.9994           0
     25325 TIP3     3842     TIP3     H1       HT       0.417000       1.00800           0
     25326 TIP3     3842     TIP3     H2       HT       0.417000       1.00800           0
     25327 TIP3     3843     TIP3     OH2      OT      -0.834000       15.9994           0
     25328 TIP3     3843     TIP3     H1       HT       0.417000       1.00800           0
     25329 TIP3     3843     TIP3     H2       HT       0.417000       1.00800           0
     25330 TIP3     3844     TIP3     OH2      OT      -0.834000       15.9994           0
     25331 TIP3     3844     TIP3     H1       HT       0.417000       1.00800           0
     25332 TIP3     3844     TIP3     H2       HT       0.417000       1.00800           0
     25333 TIP3     3845     TIP3     OH2      OT      -0.834000       15.9994           0
     25334 TIP3     3845     TIP3     H1       HT       0.417000       1.00800           0
     25335 TIP3     3845     TIP3     H2       HT       0.417000       1.00800           0
     25336 TIP3     3846     TIP3     OH2      OT      -0.834000       15.9994           0
     25337 TIP3     3846     TIP3     H1       HT       0.417000       1.00800           0
     25338 TIP3     3846     TIP3     H2       HT       0.417000       1.00800           0
     25339 TIP3     3847     TIP3     OH2      OT      -0.834000       15.9994           0
     25340 TIP3     3847     TIP3     H1       HT       0.417000       1.00800           0
     25341 TIP3     3847     TIP3     H2       HT       0.417000       1.00800           0
     25342 TIP3     3848     TIP3     OH2      OT      -0.834000       15.9994           0
     25343 TIP3     3848     TIP3     H1       HT       0.417000       1.00800           0
     25344 TIP3     3848     TIP3     H2       HT       0.417000       1.00800           0
     25345 TIP3     3849     TIP3     OH2      OT      -0.834000       15.9994           0
     25346 TIP3     3849     TIP3     H1       HT       0.417000       1.00800           0
     25347 TIP3     3849     TIP3     H2       HT       0.417000       1.00800           0
     25348 TIP3     3850     TIP3     OH2      OT      -0.834000       15.9994           0
     25349 TIP3     3850     TIP3     H1       HT       0.417000       1.00800           0
     25350 TIP3     3850     TIP3     H2       HT       0.417000       1.00800           0
     25351 TIP3     3851     TIP3     OH2      OT      -0.834000       15.9994           0
     25352 TIP3     3851     TIP3     H1       HT       0.417000       1.00800           0
     25353 TIP3     3851     TIP3     H2       HT       0.417000       1.00800           0
     25354 TIP3     3852     TIP3     OH2      OT      -0.834000       15.9994           0
     25355 TIP3     3852     TIP3     H1       HT       0.417000       1.00800           0
     25356 TIP3     3852     TIP3     H2       HT       0.417000       1.00800           0
     25357 TIP3     3853     TIP3     OH2      OT      -0.834000       15.9994           0
     25358 TIP3     3853     TIP3     H1       HT       0.417000       1.00800           0
     25359 TIP3     3853     TIP3     H2       HT       0.417000       1.00800           0
     25360 TIP3     3854     TIP3     OH2      OT      -0.834000       15.9994           0
     25361 TIP3     3854     TIP3     H1       HT       0.417000       1.00800           0
     25362 TIP3     3854     TIP3     H2       HT       0.417000       1.00800           0
     25363 TIP3     3855     TIP3     OH2      OT      -0.834000       15.9994           0
     25364 TIP3     3855     TIP3     H1       HT       0.417000       1.00800           0
     25365 TIP3     3855     TIP3     H2       HT       0.417000       1.00800           0
     25366 TIP3     3856     TIP3     OH2      OT      -0.834000       15.9994           0
     25367 TIP3     3856     TIP3     H1       HT       0.417000       1.00800           0
     25368 TIP3     3856     TIP3     H2       HT       0.417000       1.00800           0
     25369 TIP3     3857     TIP3     OH2      OT      -0.834000       15.9994           0
     25370 TIP3     3857     TIP3     H1       HT       0.417000       1.00800           0
     25371 TIP3     3857     TIP3     H2       HT       0.417000       1.00800           0
     25372 TIP3     3858     TIP3     OH2      OT      -0.834000       15.9994           0
     25373 TIP3     3858     TIP3     H1       HT       0.417000       1.00800           0
     25374 TIP3     3858     TIP3     H2       HT       0.417000       1.00800           0
     25375 TIP3     3859     TIP3     OH2      OT      -0.834000       15.9994           0
     25376 TIP3     3859     TIP3     H1       HT       0.417000       1.00800           0
     25377 TIP3     3859     TIP3     H2       HT       0.417000       1.00800           0
     25378 TIP3     3860     TIP3     OH2      OT      -0.834000       15.9994           0
     25379 TIP3     3860     TIP3     H1       HT       0.417000       1.00800           0
     25380 TIP3     3860     TIP3     H2       HT       0.417000       1.00800           0
     25381 TIP3     3861     TIP3     OH2      OT      -0.834000       15.9994           0
     25382 TIP3     3861     TIP3     H1       HT       0.417000       1.00800           0
     25383 TIP3     3861     TIP3     H2       HT       0.417000       1.00800           0
     25384 TIP3     3862     TIP3     OH2      OT      -0.834000       15.9994           0
     25385 TIP3     3862     TIP3     H1       HT       0.417000       1.00800           0
     25386 TIP3     3862     TIP3     H2       HT       0.417000       1.00800           0
     25387 TIP3     3863     TIP3     OH2      OT      -0.834000       15.9994           0
     25388 TIP3     3863     TIP3     H1       HT       0.417000       1.00800           0
     25389 TIP3     3863     TIP3     H2       HT       0.417000       1.00800           0
     25390 TIP3     3864     TIP3     OH2      OT      -0.834000       15.9994           0
     25391 TIP3     3864     TIP3     H1       HT       0.417000       1.00800           0
     25392 TIP3     3864     TIP3     H2       HT       0.417000       1.00800           0
     25393 TIP3     3865     TIP3     OH2      OT      -0.834000       15.9994           0
     25394 TIP3     3865     TIP3     H1       HT       0.417000       1.00800           0
     25395 TIP3     3865     TIP3     H2       HT       0.417000       1.00800           0
     25396 TIP3     3866     TIP3     OH2      OT      -0.834000       15.9994           0
     25397 TIP3     3866     TIP3     H1       HT       0.417000       1.00800           0
     25398 TIP3     3866     TIP3     H2       HT       0.417000       1.00800           0
     25399 TIP3     3867     TIP3     OH2      OT      -0.834000       15.9994           0
     25400 TIP3     3867     TIP3     H1       HT       0.417000       1.00800           0
     25401 TIP3     3867     TIP3     H2       HT       0.417000       1.00800           0
     25402 TIP3     3868     TIP3     OH2      OT      -0.834000       15.9994           0
     25403 TIP3     3868     TIP3     H1       HT       0.417000       1.00800           0
     25404 TIP3     3868     TIP3     H2       HT       0.417000       1.00800           0
     25405 TIP3     3869     TIP3     OH2      OT      -0.834000       15.9994           0
     25406 TIP3     3869     TIP3     H1       HT       0.417000       1.00800           0
     25407 TIP3     3869     TIP3     H2       HT       0.417000       1.00800           0
     25408 TIP3     3870     TIP3     OH2      OT      -0.834000       15.9994           0
     25409 TIP3     3870     TIP3     H1       HT       0.417000       1.00800           0
     25410 TIP3     3870     TIP3     H2       HT       0.417000       1.00800           0
     25411 TIP3     3871     TIP3     OH2      OT      -0.834000       15.9994           0
     25412 TIP3     3871     TIP3     H1       HT       0.417000       1.00800           0
     25413 TIP3     3871     TIP3     H2       HT       0.417000       1.00800           0
     25414 TIP3     3872     TIP3     OH2      OT      -0.834000       15.9994           0
     25415 TIP3     3872     TIP3     H1       HT       0.417000       1.00800           0
     25416 TIP3     3872     TIP3     H2       HT       0.417000       1.00800           0
     25417 TIP3     3873     TIP3     OH2      OT      -0.834000       15.9994           0
     25418 TIP3     3873     TIP3     H1       HT       0.417000       1.00800           0
     25419 TIP3     3873     TIP3     H2       HT       0.417000       1.00800           0
     25420 TIP3     3874     TIP3     OH2      OT      -0.834000       15.9994           0
     25421 TIP3     3874     TIP3     H1       HT       0.417000       1.00800           0
     25422 TIP3     3874     TIP3     H2       HT       0.417000       1.00800           0
     25423 TIP3     3875     TIP3     OH2      OT      -0.834000       15.9994           0
     25424 TIP3     3875     TIP3     H1       HT       0.417000       1.00800           0
     25425 TIP3     3875     TIP3     H2       HT       0.417000       1.00800           0
     25426 TIP3     3876     TIP3     OH2      OT      -0.834000       15.9994           0
     25427 TIP3     3876     TIP3     H1       HT       0.417000       1.00800           0
     25428 TIP3     3876     TIP3     H2       HT       0.417000       1.00800           0
     25429 TIP3     3877     TIP3     OH2      OT      -0.834000       15.9994           0
     25430 TIP3     3877     TIP3     H1       HT       0.417000       1.00800           0
     25431 TIP3     3877     TIP3     H2       HT       0.417000       1.00800           0
     25432 TIP3     3878     TIP3     OH2      OT      -0.834000       15.9994           0
     25433 TIP3     3878     TIP3     H1       HT       0.417000       1.00800           0
     25434 TIP3     3878     TIP3     H2       HT       0.417000       1.00800           0
     25435 TIP3     3879     TIP3     OH2      OT      -0.834000       15.9994           0
     25436 TIP3     3879     TIP3     H1       HT       0.417000       1.00800           0
     25437 TIP3     3879     TIP3     H2       HT       0.417000       1.00800           0
     25438 TIP3     3880     TIP3     OH2      OT      -0.834000       15.9994           0
     25439 TIP3     3880     TIP3     H1       HT       0.417000       1.00800           0
     25440 TIP3     3880     TIP3     H2       HT       0.417000       1.00800           0
     25441 TIP3     3881     TIP3     OH2      OT      -0.834000       15.9994           0
     25442 TIP3     3881     TIP3     H1       HT       0.417000       1.00800           0
     25443 TIP3     3881     TIP3     H2       HT       0.417000       1.00800           0
     25444 TIP3     3882     TIP3     OH2      OT      -0.834000       15.9994           0
     25445 TIP3     3882     TIP3     H1       HT       0.417000       1.00800           0
     25446 TIP3     3882     TIP3     H2       HT       0.417000       1.00800           0
     25447 TIP3     3883     TIP3     OH2      OT      -0.834000       15.9994           0
     25448 TIP3     3883     TIP3     H1       HT       0.417000       1.00800           0
     25449 TIP3     3883     TIP3     H2       HT       0.417000       1.00800           0
     25450 TIP3     3884     TIP3     OH2      OT      -0.834000       15.9994           0
     25451 TIP3     3884     TIP3     H1       HT       0.417000       1.00800           0
     25452 TIP3     3884     TIP3     H2       HT       0.417000       1.00800           0
     25453 TIP3     3885     TIP3     OH2      OT      -0.834000       15.9994           0
     25454 TIP3     3885     TIP3     H1       HT       0.417000       1.00800           0
     25455 TIP3     3885     TIP3     H2       HT       0.417000       1.00800           0
     25456 TIP3     3886     TIP3     OH2      OT      -0.834000       15.9994           0
     25457 TIP3     3886     TIP3     H1       HT       0.417000       1.00800           0
     25458 TIP3     3886     TIP3     H2       HT       0.417000       1.00800           0
     25459 TIP3     3887     TIP3     OH2      OT      -0.834000       15.9994           0
     25460 TIP3     3887     TIP3     H1       HT       0.417000       1.00800           0
     25461 TIP3     3887     TIP3     H2       HT       0.417000       1.00800           0
     25462 TIP3     3888     TIP3     OH2      OT      -0.834000       15.9994           0
     25463 TIP3     3888     TIP3     H1       HT       0.417000       1.00800           0
     25464 TIP3     3888     TIP3     H2       HT       0.417000       1.00800           0
     25465 TIP3     3889     TIP3     OH2      OT      -0.834000       15.9994           0
     25466 TIP3     3889     TIP3     H1       HT       0.417000       1.00800           0
     25467 TIP3     3889     TIP3     H2       HT       0.417000       1.00800           0
     25468 TIP3     3890     TIP3     OH2      OT      -0.834000       15.9994           0
     25469 TIP3     3890     TIP3     H1       HT       0.417000       1.00800           0
     25470 TIP3     3890     TIP3     H2       HT       0.417000       1.00800           0
     25471 TIP3     3891     TIP3     OH2      OT      -0.834000       15.9994           0
     25472 TIP3     3891     TIP3     H1       HT       0.417000       1.00800           0
     25473 TIP3     3891     TIP3     H2       HT       0.417000       1.00800           0
     25474 TIP3     3892     TIP3     OH2      OT      -0.834000       15.9994           0
     25475 TIP3     3892     TIP3     H1       HT       0.417000       1.00800           0
     25476 TIP3     3892     TIP3     H2       HT       0.417000       1.00800           0
     25477 TIP3     3893     TIP3     OH2      OT      -0.834000       15.9994           0
     25478 TIP3     3893     TIP3     H1       HT       0.417000       1.00800           0
     25479 TIP3     3893     TIP3     H2       HT       0.417000       1.00800           0
     25480 TIP3     3894     TIP3     OH2      OT      -0.834000       15.9994           0
     25481 TIP3     3894     TIP3     H1       HT       0.417000       1.00800           0
     25482 TIP3     3894     TIP3     H2       HT       0.417000       1.00800           0
     25483 TIP3     3895     TIP3     OH2      OT      -0.834000       15.9994           0
     25484 TIP3     3895     TIP3     H1       HT       0.417000       1.00800           0
     25485 TIP3     3895     TIP3     H2       HT       0.417000       1.00800           0
     25486 TIP3     3896     TIP3     OH2      OT      -0.834000       15.9994           0
     25487 TIP3     3896     TIP3     H1       HT       0.417000       1.00800           0
     25488 TIP3     3896     TIP3     H2       HT       0.417000       1.00800           0
     25489 TIP3     3897     TIP3     OH2      OT      -0.834000       15.9994           0
     25490 TIP3     3897     TIP3     H1       HT       0.417000       1.00800           0
     25491 TIP3     3897     TIP3     H2       HT       0.417000       1.00800           0
     25492 TIP3     3898     TIP3     OH2      OT      -0.834000       15.9994           0
     25493 TIP3     3898     TIP3     H1       HT       0.417000       1.00800           0
     25494 TIP3     3898     TIP3     H2       HT       0.417000       1.00800           0
     25495 TIP3     3899     TIP3     OH2      OT      -0.834000       15.9994           0
     25496 TIP3     3899     TIP3     H1       HT       0.417000       1.00800           0
     25497 TIP3     3899     TIP3     H2       HT       0.417000       1.00800           0
     25498 TIP3     3900     TIP3     OH2      OT      -0.834000       15.9994           0
     25499 TIP3     3900     TIP3     H1       HT       0.417000       1.00800           0
     25500 TIP3     3900     TIP3     H2       HT       0.417000       1.00800           0
     25501 TIP3     3901     TIP3     OH2      OT      -0.834000       15.9994           0
     25502 TIP3     3901     TIP3     H1       HT       0.417000       1.00800           0
     25503 TIP3     3901     TIP3     H2       HT       0.417000       1.00800           0
     25504 TIP3     3902     TIP3     OH2      OT      -0.834000       15.9994           0
     25505 TIP3     3902     TIP3     H1       HT       0.417000       1.00800           0
     25506 TIP3     3902     TIP3     H2       HT       0.417000       1.00800           0
     25507 TIP3     3903     TIP3     OH2      OT      -0.834000       15.9994           0
     25508 TIP3     3903     TIP3     H1       HT       0.417000       1.00800           0
     25509 TIP3     3903     TIP3     H2       HT       0.417000       1.00800           0
     25510 TIP3     3904     TIP3     OH2      OT      -0.834000       15.9994           0
     25511 TIP3     3904     TIP3     H1       HT       0.417000       1.00800           0
     25512 TIP3     3904     TIP3     H2       HT       0.417000       1.00800           0
     25513 TIP3     3905     TIP3     OH2      OT      -0.834000       15.9994           0
     25514 TIP3     3905     TIP3     H1       HT       0.417000       1.00800           0
     25515 TIP3     3905     TIP3     H2       HT       0.417000       1.00800           0
     25516 TIP3     3906     TIP3     OH2      OT      -0.834000       15.9994           0
     25517 TIP3     3906     TIP3     H1       HT       0.417000       1.00800           0
     25518 TIP3     3906     TIP3     H2       HT       0.417000       1.00800           0
     25519 TIP3     3907     TIP3     OH2      OT      -0.834000       15.9994           0
     25520 TIP3     3907     TIP3     H1       HT       0.417000       1.00800           0
     25521 TIP3     3907     TIP3     H2       HT       0.417000       1.00800           0
     25522 TIP3     3908     TIP3     OH2      OT      -0.834000       15.9994           0
     25523 TIP3     3908     TIP3     H1       HT       0.417000       1.00800           0
     25524 TIP3     3908     TIP3     H2       HT       0.417000       1.00800           0
     25525 TIP3     3909     TIP3     OH2      OT      -0.834000       15.9994           0
     25526 TIP3     3909     TIP3     H1       HT       0.417000       1.00800           0
     25527 TIP3     3909     TIP3     H2       HT       0.417000       1.00800           0
     25528 TIP3     3910     TIP3     OH2      OT      -0.834000       15.9994           0
     25529 TIP3     3910     TIP3     H1       HT       0.417000       1.00800           0
     25530 TIP3     3910     TIP3     H2       HT       0.417000       1.00800           0
     25531 TIP3     3911     TIP3     OH2      OT      -0.834000       15.9994           0
     25532 TIP3     3911     TIP3     H1       HT       0.417000       1.00800           0
     25533 TIP3     3911     TIP3     H2       HT       0.417000       1.00800           0
     25534 TIP3     3912     TIP3     OH2      OT      -0.834000       15.9994           0
     25535 TIP3     3912     TIP3     H1       HT       0.417000       1.00800           0
     25536 TIP3     3912     TIP3     H2       HT       0.417000       1.00800           0
     25537 TIP3     3913     TIP3     OH2      OT      -0.834000       15.9994           0
     25538 TIP3     3913     TIP3     H1       HT       0.417000       1.00800           0
     25539 TIP3     3913     TIP3     H2       HT       0.417000       1.00800           0
     25540 TIP3     3914     TIP3     OH2      OT      -0.834000       15.9994           0
     25541 TIP3     3914     TIP3     H1       HT       0.417000       1.00800           0
     25542 TIP3     3914     TIP3     H2       HT       0.417000       1.00800           0
     25543 TIP3     3915     TIP3     OH2      OT      -0.834000       15.9994           0
     25544 TIP3     3915     TIP3     H1       HT       0.417000       1.00800           0
     25545 TIP3     3915     TIP3     H2       HT       0.417000       1.00800           0
     25546 TIP3     3916     TIP3     OH2      OT      -0.834000       15.9994           0
     25547 TIP3     3916     TIP3     H1       HT       0.417000       1.00800           0
     25548 TIP3     3916     TIP3     H2       HT       0.417000       1.00800           0
     25549 TIP3     3917     TIP3     OH2      OT      -0.834000       15.9994           0
     25550 TIP3     3917     TIP3     H1       HT       0.417000       1.00800           0
     25551 TIP3     3917     TIP3     H2       HT       0.417000       1.00800           0
     25552 TIP3     3918     TIP3     OH2      OT      -0.834000       15.9994           0
     25553 TIP3     3918     TIP3     H1       HT       0.417000       1.00800           0
     25554 TIP3     3918     TIP3     H2       HT       0.417000       1.00800           0
     25555 TIP3     3919     TIP3     OH2      OT      -0.834000       15.9994           0
     25556 TIP3     3919     TIP3     H1       HT       0.417000       1.00800           0
     25557 TIP3     3919     TIP3     H2       HT       0.417000       1.00800           0
     25558 TIP3     3920     TIP3     OH2      OT      -0.834000       15.9994           0
     25559 TIP3     3920     TIP3     H1       HT       0.417000       1.00800           0
     25560 TIP3     3920     TIP3     H2       HT       0.417000       1.00800           0
     25561 TIP3     3921     TIP3     OH2      OT      -0.834000       15.9994           0
     25562 TIP3     3921     TIP3     H1       HT       0.417000       1.00800           0
     25563 TIP3     3921     TIP3     H2       HT       0.417000       1.00800           0
     25564 TIP3     3922     TIP3     OH2      OT      -0.834000       15.9994           0
     25565 TIP3     3922     TIP3     H1       HT       0.417000       1.00800           0
     25566 TIP3     3922     TIP3     H2       HT       0.417000       1.00800           0
     25567 TIP3     3923     TIP3     OH2      OT      -0.834000       15.9994           0
     25568 TIP3     3923     TIP3     H1       HT       0.417000       1.00800           0
     25569 TIP3     3923     TIP3     H2       HT       0.417000       1.00800           0
     25570 TIP3     3924     TIP3     OH2      OT      -0.834000       15.9994           0
     25571 TIP3     3924     TIP3     H1       HT       0.417000       1.00800           0
     25572 TIP3     3924     TIP3     H2       HT       0.417000       1.00800           0
     25573 TIP3     3925     TIP3     OH2      OT      -0.834000       15.9994           0
     25574 TIP3     3925     TIP3     H1       HT       0.417000       1.00800           0
     25575 TIP3     3925     TIP3     H2       HT       0.417000       1.00800           0
     25576 TIP3     3926     TIP3     OH2      OT      -0.834000       15.9994           0
     25577 TIP3     3926     TIP3     H1       HT       0.417000       1.00800           0
     25578 TIP3     3926     TIP3     H2       HT       0.417000       1.00800           0
     25579 TIP3     3927     TIP3     OH2      OT      -0.834000       15.9994           0
     25580 TIP3     3927     TIP3     H1       HT       0.417000       1.00800           0
     25581 TIP3     3927     TIP3     H2       HT       0.417000       1.00800           0
     25582 TIP3     3928     TIP3     OH2      OT      -0.834000       15.9994           0
     25583 TIP3     3928     TIP3     H1       HT       0.417000       1.00800           0
     25584 TIP3     3928     TIP3     H2       HT       0.417000       1.00800           0
     25585 TIP3     3929     TIP3     OH2      OT      -0.834000       15.9994           0
     25586 TIP3     3929     TIP3     H1       HT       0.417000       1.00800           0
     25587 TIP3     3929     TIP3     H2       HT       0.417000       1.00800           0
     25588 TIP3     3930     TIP3     OH2      OT      -0.834000       15.9994           0
     25589 TIP3     3930     TIP3     H1       HT       0.417000       1.00800           0
     25590 TIP3     3930     TIP3     H2       HT       0.417000       1.00800           0
     25591 TIP3     3931     TIP3     OH2      OT      -0.834000       15.9994           0
     25592 TIP3     3931     TIP3     H1       HT       0.417000       1.00800           0
     25593 TIP3     3931     TIP3     H2       HT       0.417000       1.00800           0
     25594 TIP3     3932     TIP3     OH2      OT      -0.834000       15.9994           0
     25595 TIP3     3932     TIP3     H1       HT       0.417000       1.00800           0
     25596 TIP3     3932     TIP3     H2       HT       0.417000       1.00800           0
     25597 TIP3     3933     TIP3     OH2      OT      -0.834000       15.9994           0
     25598 TIP3     3933     TIP3     H1       HT       0.417000       1.00800           0
     25599 TIP3     3933     TIP3     H2       HT       0.417000       1.00800           0
     25600 TIP3     3934     TIP3     OH2      OT      -0.834000       15.9994           0
     25601 TIP3     3934     TIP3     H1       HT       0.417000       1.00800           0
     25602 TIP3     3934     TIP3     H2       HT       0.417000       1.00800           0
     25603 TIP3     3935     TIP3     OH2      OT      -0.834000       15.9994           0
     25604 TIP3     3935     TIP3     H1       HT       0.417000       1.00800           0
     25605 TIP3     3935     TIP3     H2       HT       0.417000       1.00800           0
     25606 TIP3     3936     TIP3     OH2      OT      -0.834000       15.9994           0
     25607 TIP3     3936     TIP3     H1       HT       0.417000       1.00800           0
     25608 TIP3     3936     TIP3     H2       HT       0.417000       1.00800           0
     25609 TIP3     3937     TIP3     OH2      OT      -0.834000       15.9994           0
     25610 TIP3     3937     TIP3     H1       HT       0.417000       1.00800           0
     25611 TIP3     3937     TIP3     H2       HT       0.417000       1.00800           0
     25612 TIP3     3938     TIP3     OH2      OT      -0.834000       15.9994           0
     25613 TIP3     3938     TIP3     H1       HT       0.417000       1.00800           0
     25614 TIP3     3938     TIP3     H2       HT       0.417000       1.00800           0
     25615 TIP3     3939     TIP3     OH2      OT      -0.834000       15.9994           0
     25616 TIP3     3939     TIP3     H1       HT       0.417000       1.00800           0
     25617 TIP3     3939     TIP3     H2       HT       0.417000       1.00800           0
     25618 TIP3     3940     TIP3     OH2      OT      -0.834000       15.9994           0
     25619 TIP3     3940     TIP3     H1       HT       0.417000       1.00800           0
     25620 TIP3     3940     TIP3     H2       HT       0.417000       1.00800           0
     25621 TIP3     3941     TIP3     OH2      OT      -0.834000       15.9994           0
     25622 TIP3     3941     TIP3     H1       HT       0.417000       1.00800           0
     25623 TIP3     3941     TIP3     H2       HT       0.417000       1.00800           0
     25624 TIP3     3942     TIP3     OH2      OT      -0.834000       15.9994           0
     25625 TIP3     3942     TIP3     H1       HT       0.417000       1.00800           0
     25626 TIP3     3942     TIP3     H2       HT       0.417000       1.00800           0
     25627 TIP3     3943     TIP3     OH2      OT      -0.834000       15.9994           0
     25628 TIP3     3943     TIP3     H1       HT       0.417000       1.00800           0
     25629 TIP3     3943     TIP3     H2       HT       0.417000       1.00800           0
     25630 TIP3     3944     TIP3     OH2      OT      -0.834000       15.9994           0
     25631 TIP3     3944     TIP3     H1       HT       0.417000       1.00800           0
     25632 TIP3     3944     TIP3     H2       HT       0.417000       1.00800           0
     25633 TIP3     3945     TIP3     OH2      OT      -0.834000       15.9994           0
     25634 TIP3     3945     TIP3     H1       HT       0.417000       1.00800           0
     25635 TIP3     3945     TIP3     H2       HT       0.417000       1.00800           0
     25636 TIP3     3946     TIP3     OH2      OT      -0.834000       15.9994           0
     25637 TIP3     3946     TIP3     H1       HT       0.417000       1.00800           0
     25638 TIP3     3946     TIP3     H2       HT       0.417000       1.00800           0
     25639 TIP3     3947     TIP3     OH2      OT      -0.834000       15.9994           0
     25640 TIP3     3947     TIP3     H1       HT       0.417000       1.00800           0
     25641 TIP3     3947     TIP3     H2       HT       0.417000       1.00800           0
     25642 TIP3     3948     TIP3     OH2      OT      -0.834000       15.9994           0
     25643 TIP3     3948     TIP3     H1       HT       0.417000       1.00800           0
     25644 TIP3     3948     TIP3     H2       HT       0.417000       1.00800           0
     25645 TIP3     3949     TIP3     OH2      OT      -0.834000       15.9994           0
     25646 TIP3     3949     TIP3     H1       HT       0.417000       1.00800           0
     25647 TIP3     3949     TIP3     H2       HT       0.417000       1.00800           0
     25648 TIP3     3950     TIP3     OH2      OT      -0.834000       15.9994           0
     25649 TIP3     3950     TIP3     H1       HT       0.417000       1.00800           0
     25650 TIP3     3950     TIP3     H2       HT       0.417000       1.00800           0
     25651 TIP3     3951     TIP3     OH2      OT      -0.834000       15.9994           0
     25652 TIP3     3951     TIP3     H1       HT       0.417000       1.00800           0
     25653 TIP3     3951     TIP3     H2       HT       0.417000       1.00800           0
     25654 TIP3     3952     TIP3     OH2      OT      -0.834000       15.9994           0
     25655 TIP3     3952     TIP3     H1       HT       0.417000       1.00800           0
     25656 TIP3     3952     TIP3     H2       HT       0.417000       1.00800           0
     25657 TIP3     3953     TIP3     OH2      OT      -0.834000       15.9994           0
     25658 TIP3     3953     TIP3     H1       HT       0.417000       1.00800           0
     25659 TIP3     3953     TIP3     H2       HT       0.417000       1.00800           0
     25660 TIP3     3954     TIP3     OH2      OT      -0.834000       15.9994           0
     25661 TIP3     3954     TIP3     H1       HT       0.417000       1.00800           0
     25662 TIP3     3954     TIP3     H2       HT       0.417000       1.00800           0
     25663 TIP3     3955     TIP3     OH2      OT      -0.834000       15.9994           0
     25664 TIP3     3955     TIP3     H1       HT       0.417000       1.00800           0
     25665 TIP3     3955     TIP3     H2       HT       0.417000       1.00800           0
     25666 TIP3     3956     TIP3     OH2      OT      -0.834000       15.9994           0
     25667 TIP3     3956     TIP3     H1       HT       0.417000       1.00800           0
     25668 TIP3     3956     TIP3     H2       HT       0.417000       1.00800           0
     25669 TIP3     3957     TIP3     OH2      OT      -0.834000       15.9994           0
     25670 TIP3     3957     TIP3     H1       HT       0.417000       1.00800           0
     25671 TIP3     3957     TIP3     H2       HT       0.417000       1.00800           0
     25672 TIP3     3958     TIP3     OH2      OT      -0.834000       15.9994           0
     25673 TIP3     3958     TIP3     H1       HT       0.417000       1.00800           0
     25674 TIP3     3958     TIP3     H2       HT       0.417000       1.00800           0
     25675 TIP3     3959     TIP3     OH2      OT      -0.834000       15.9994           0
     25676 TIP3     3959     TIP3     H1       HT       0.417000       1.00800           0
     25677 TIP3     3959     TIP3     H2       HT       0.417000       1.00800           0
     25678 TIP3     3960     TIP3     OH2      OT      -0.834000       15.9994           0
     25679 TIP3     3960     TIP3     H1       HT       0.417000       1.00800           0
     25680 TIP3     3960     TIP3     H2       HT       0.417000       1.00800           0
     25681 TIP3     3961     TIP3     OH2      OT      -0.834000       15.9994           0
     25682 TIP3     3961     TIP3     H1       HT       0.417000       1.00800           0
     25683 TIP3     3961     TIP3     H2       HT       0.417000       1.00800           0
     25684 TIP3     3962     TIP3     OH2      OT      -0.834000       15.9994           0
     25685 TIP3     3962     TIP3     H1       HT       0.417000       1.00800           0
     25686 TIP3     3962     TIP3     H2       HT       0.417000       1.00800           0
     25687 TIP3     3963     TIP3     OH2      OT      -0.834000       15.9994           0
     25688 TIP3     3963     TIP3     H1       HT       0.417000       1.00800           0
     25689 TIP3     3963     TIP3     H2       HT       0.417000       1.00800           0
     25690 TIP3     3964     TIP3     OH2      OT      -0.834000       15.9994           0
     25691 TIP3     3964     TIP3     H1       HT       0.417000       1.00800           0
     25692 TIP3     3964     TIP3     H2       HT       0.417000       1.00800           0
     25693 TIP3     3965     TIP3     OH2      OT      -0.834000       15.9994           0
     25694 TIP3     3965     TIP3     H1       HT       0.417000       1.00800           0
     25695 TIP3     3965     TIP3     H2       HT       0.417000       1.00800           0
     25696 TIP3     3966     TIP3     OH2      OT      -0.834000       15.9994           0
     25697 TIP3     3966     TIP3     H1       HT       0.417000       1.00800           0
     25698 TIP3     3966     TIP3     H2       HT       0.417000       1.00800           0
     25699 TIP3     3967     TIP3     OH2      OT      -0.834000       15.9994           0
     25700 TIP3     3967     TIP3     H1       HT       0.417000       1.00800           0
     25701 TIP3     3967     TIP3     H2       HT       0.417000       1.00800           0
     25702 TIP3     3968     TIP3     OH2      OT      -0.834000       15.9994           0
     25703 TIP3     3968     TIP3     H1       HT       0.417000       1.00800           0
     25704 TIP3     3968     TIP3     H2       HT       0.417000       1.00800           0
     25705 TIP3     3969     TIP3     OH2      OT      -0.834000       15.9994           0
     25706 TIP3     3969     TIP3     H1       HT       0.417000       1.00800           0
     25707 TIP3     3969     TIP3     H2       HT       0.417000       1.00800           0
     25708 TIP3     3970     TIP3     OH2      OT      -0.834000       15.9994           0
     25709 TIP3     3970     TIP3     H1       HT       0.417000       1.00800           0
     25710 TIP3     3970     TIP3     H2       HT       0.417000       1.00800           0
     25711 TIP3     3971     TIP3     OH2      OT      -0.834000       15.9994           0
     25712 TIP3     3971     TIP3     H1       HT       0.417000       1.00800           0
     25713 TIP3     3971     TIP3     H2       HT       0.417000       1.00800           0
     25714 TIP3     3972     TIP3     OH2      OT      -0.834000       15.9994           0
     25715 TIP3     3972     TIP3     H1       HT       0.417000       1.00800           0
     25716 TIP3     3972     TIP3     H2       HT       0.417000       1.00800           0
     25717 TIP3     3973     TIP3     OH2      OT      -0.834000       15.9994           0
     25718 TIP3     3973     TIP3     H1       HT       0.417000       1.00800           0
     25719 TIP3     3973     TIP3     H2       HT       0.417000       1.00800           0
     25720 TIP3     3974     TIP3     OH2      OT      -0.834000       15.9994           0
     25721 TIP3     3974     TIP3     H1       HT       0.417000       1.00800           0
     25722 TIP3     3974     TIP3     H2       HT       0.417000       1.00800           0
     25723 TIP3     3975     TIP3     OH2      OT      -0.834000       15.9994           0
     25724 TIP3     3975     TIP3     H1       HT       0.417000       1.00800           0
     25725 TIP3     3975     TIP3     H2       HT       0.417000       1.00800           0
     25726 TIP3     3976     TIP3     OH2      OT      -0.834000       15.9994           0
     25727 TIP3     3976     TIP3     H1       HT       0.417000       1.00800           0
     25728 TIP3     3976     TIP3     H2       HT       0.417000       1.00800           0
     25729 TIP3     3977     TIP3     OH2      OT      -0.834000       15.9994           0
     25730 TIP3     3977     TIP3     H1       HT       0.417000       1.00800           0
     25731 TIP3     3977     TIP3     H2       HT       0.417000       1.00800           0
     25732 TIP3     3978     TIP3     OH2      OT      -0.834000       15.9994           0
     25733 TIP3     3978     TIP3     H1       HT       0.417000       1.00800           0
     25734 TIP3     3978     TIP3     H2       HT       0.417000       1.00800           0
     25735 TIP3     3979     TIP3     OH2      OT      -0.834000       15.9994           0
     25736 TIP3     3979     TIP3     H1       HT       0.417000       1.00800           0
     25737 TIP3     3979     TIP3     H2       HT       0.417000       1.00800           0
     25738 TIP3     3980     TIP3     OH2      OT      -0.834000       15.9994           0
     25739 TIP3     3980     TIP3     H1       HT       0.417000       1.00800           0
     25740 TIP3     3980     TIP3     H2       HT       0.417000       1.00800           0
     25741 TIP3     3981     TIP3     OH2      OT      -0.834000       15.9994           0
     25742 TIP3     3981     TIP3     H1       HT       0.417000       1.00800           0
     25743 TIP3     3981     TIP3     H2       HT       0.417000       1.00800           0
     25744 TIP3     3982     TIP3     OH2      OT      -0.834000       15.9994           0
     25745 TIP3     3982     TIP3     H1       HT       0.417000       1.00800           0
     25746 TIP3     3982     TIP3     H2       HT       0.417000       1.00800           0
     25747 TIP3     3983     TIP3     OH2      OT      -0.834000       15.9994           0
     25748 TIP3     3983     TIP3     H1       HT       0.417000       1.00800           0
     25749 TIP3     3983     TIP3     H2       HT       0.417000       1.00800           0
     25750 TIP3     3984     TIP3     OH2      OT      -0.834000       15.9994           0
     25751 TIP3     3984     TIP3     H1       HT       0.417000       1.00800           0
     25752 TIP3     3984     TIP3     H2       HT       0.417000       1.00800           0
     25753 TIP3     3985     TIP3     OH2      OT      -0.834000       15.9994           0
     25754 TIP3     3985     TIP3     H1       HT       0.417000       1.00800           0
     25755 TIP3     3985     TIP3     H2       HT       0.417000       1.00800           0
     25756 TIP3     3986     TIP3     OH2      OT      -0.834000       15.9994           0
     25757 TIP3     3986     TIP3     H1       HT       0.417000       1.00800           0
     25758 TIP3     3986     TIP3     H2       HT       0.417000       1.00800           0
     25759 TIP3     3987     TIP3     OH2      OT      -0.834000       15.9994           0
     25760 TIP3     3987     TIP3     H1       HT       0.417000       1.00800           0
     25761 TIP3     3987     TIP3     H2       HT       0.417000       1.00800           0
     25762 TIP3     3988     TIP3     OH2      OT      -0.834000       15.9994           0
     25763 TIP3     3988     TIP3     H1       HT       0.417000       1.00800           0
     25764 TIP3     3988     TIP3     H2       HT       0.417000       1.00800           0
     25765 TIP3     3989     TIP3     OH2      OT      -0.834000       15.9994           0
     25766 TIP3     3989     TIP3     H1       HT       0.417000       1.00800           0
     25767 TIP3     3989     TIP3     H2       HT       0.417000       1.00800           0
     25768 TIP3     3990     TIP3     OH2      OT      -0.834000       15.9994           0
     25769 TIP3     3990     TIP3     H1       HT       0.417000       1.00800           0
     25770 TIP3     3990     TIP3     H2       HT       0.417000       1.00800           0
     25771 TIP3     3991     TIP3     OH2      OT      -0.834000       15.9994           0
     25772 TIP3     3991     TIP3     H1       HT       0.417000       1.00800           0
     25773 TIP3     3991     TIP3     H2       HT       0.417000       1.00800           0
     25774 TIP3     3992     TIP3     OH2      OT      -0.834000       15.9994           0
     25775 TIP3     3992     TIP3     H1       HT       0.417000       1.00800           0
     25776 TIP3     3992     TIP3     H2       HT       0.417000       1.00800           0
     25777 TIP3     3993     TIP3     OH2      OT      -0.834000       15.9994           0
     25778 TIP3     3993     TIP3     H1       HT       0.417000       1.00800           0
     25779 TIP3     3993     TIP3     H2       HT       0.417000       1.00800           0
     25780 TIP3     3994     TIP3     OH2      OT      -0.834000       15.9994           0
     25781 TIP3     3994     TIP3     H1       HT       0.417000       1.00800           0
     25782 TIP3     3994     TIP3     H2       HT       0.417000       1.00800           0
     25783 TIP3     3995     TIP3     OH2      OT      -0.834000       15.9994           0
     25784 TIP3     3995     TIP3     H1       HT       0.417000       1.00800           0
     25785 TIP3     3995     TIP3     H2       HT       0.417000       1.00800           0
     25786 TIP3     3996     TIP3     OH2      OT      -0.834000       15.9994           0
     25787 TIP3     3996     TIP3     H1       HT       0.417000       1.00800           0
     25788 TIP3     3996     TIP3     H2       HT       0.417000       1.00800           0
     25789 TIP3     3997     TIP3     OH2      OT      -0.834000       15.9994           0
     25790 TIP3     3997     TIP3     H1       HT       0.417000       1.00800           0
     25791 TIP3     3997     TIP3     H2       HT       0.417000       1.00800           0
     25792 TIP3     3998     TIP3     OH2      OT      -0.834000       15.9994           0
     25793 TIP3     3998     TIP3     H1       HT       0.417000       1.00800           0
     25794 TIP3     3998     TIP3     H2       HT       0.417000       1.00800           0
     25795 TIP3     3999     TIP3     OH2      OT      -0.834000       15.9994           0
     25796 TIP3     3999     TIP3     H1       HT       0.417000       1.00800           0
     25797 TIP3     3999     TIP3     H2       HT       0.417000       1.00800           0
     25798 TIP3     4000     TIP3     OH2      OT      -0.834000       15.9994           0
     25799 TIP3     4000     TIP3     H1       HT       0.417000       1.00800           0
     25800 TIP3     4000     TIP3     H2       HT       0.417000       1.00800           0
     25801 TIP3     4001     TIP3     OH2      OT      -0.834000       15.9994           0
     25802 TIP3     4001     TIP3     H1       HT       0.417000       1.00800           0
     25803 TIP3     4001     TIP3     H2       HT       0.417000       1.00800           0
     25804 TIP3     4002     TIP3     OH2      OT      -0.834000       15.9994           0
     25805 TIP3     4002     TIP3     H1       HT       0.417000       1.00800           0
     25806 TIP3     4002     TIP3     H2       HT       0.417000       1.00800           0
     25807 TIP3     4003     TIP3     OH2      OT      -0.834000       15.9994           0
     25808 TIP3     4003     TIP3     H1       HT       0.417000       1.00800           0
     25809 TIP3     4003     TIP3     H2       HT       0.417000       1.00800           0
     25810 TIP3     4004     TIP3     OH2      OT      -0.834000       15.9994           0
     25811 TIP3     4004     TIP3     H1       HT       0.417000       1.00800           0
     25812 TIP3     4004     TIP3     H2       HT       0.417000       1.00800           0
     25813 TIP3     4005     TIP3     OH2      OT      -0.834000       15.9994           0
     25814 TIP3     4005     TIP3     H1       HT       0.417000       1.00800           0
     25815 TIP3     4005     TIP3     H2       HT       0.417000       1.00800           0
     25816 TIP3     4006     TIP3     OH2      OT      -0.834000       15.9994           0
     25817 TIP3     4006     TIP3     H1       HT       0.417000       1.00800           0
     25818 TIP3     4006     TIP3     H2       HT       0.417000       1.00800           0
     25819 TIP3     4007     TIP3     OH2      OT      -0.834000       15.9994           0
     25820 TIP3     4007     TIP3     H1       HT       0.417000       1.00800           0
     25821 TIP3     4007     TIP3     H2       HT       0.417000       1.00800           0
     25822 TIP3     4008     TIP3     OH2      OT      -0.834000       15.9994           0
     25823 TIP3     4008     TIP3     H1       HT       0.417000       1.00800           0
     25824 TIP3     4008     TIP3     H2       HT       0.417000       1.00800           0
     25825 TIP3     4009     TIP3     OH2      OT      -0.834000       15.9994           0
     25826 TIP3     4009     TIP3     H1       HT       0.417000       1.00800           0
     25827 TIP3     4009     TIP3     H2       HT       0.417000       1.00800           0
     25828 TIP3     4010     TIP3     OH2      OT      -0.834000       15.9994           0
     25829 TIP3     4010     TIP3     H1       HT       0.417000       1.00800           0
     25830 TIP3     4010     TIP3     H2       HT       0.417000       1.00800           0
     25831 TIP3     4011     TIP3     OH2      OT      -0.834000       15.9994           0
     25832 TIP3     4011     TIP3     H1       HT       0.417000       1.00800           0
     25833 TIP3     4011     TIP3     H2       HT       0.417000       1.00800           0
     25834 TIP3     4012     TIP3     OH2      OT      -0.834000       15.9994           0
     25835 TIP3     4012     TIP3     H1       HT       0.417000       1.00800           0
     25836 TIP3     4012     TIP3     H2       HT       0.417000       1.00800           0
     25837 TIP3     4013     TIP3     OH2      OT      -0.834000       15.9994           0
     25838 TIP3     4013     TIP3     H1       HT       0.417000       1.00800           0
     25839 TIP3     4013     TIP3     H2       HT       0.417000       1.00800           0
     25840 TIP3     4014     TIP3     OH2      OT      -0.834000       15.9994           0
     25841 TIP3     4014     TIP3     H1       HT       0.417000       1.00800           0
     25842 TIP3     4014     TIP3     H2       HT       0.417000       1.00800           0
     25843 TIP3     4015     TIP3     OH2      OT      -0.834000       15.9994           0
     25844 TIP3     4015     TIP3     H1       HT       0.417000       1.00800           0
     25845 TIP3     4015     TIP3     H2       HT       0.417000       1.00800           0
     25846 TIP3     4016     TIP3     OH2      OT      -0.834000       15.9994           0
     25847 TIP3     4016     TIP3     H1       HT       0.417000       1.00800           0
     25848 TIP3     4016     TIP3     H2       HT       0.417000       1.00800           0
     25849 TIP3     4017     TIP3     OH2      OT      -0.834000       15.9994           0
     25850 TIP3     4017     TIP3     H1       HT       0.417000       1.00800           0
     25851 TIP3     4017     TIP3     H2       HT       0.417000       1.00800           0
     25852 TIP3     4018     TIP3     OH2      OT      -0.834000       15.9994           0
     25853 TIP3     4018     TIP3     H1       HT       0.417000       1.00800           0
     25854 TIP3     4018     TIP3     H2       HT       0.417000       1.00800           0
     25855 TIP3     4019     TIP3     OH2      OT      -0.834000       15.9994           0
     25856 TIP3     4019     TIP3     H1       HT       0.417000       1.00800           0
     25857 TIP3     4019     TIP3     H2       HT       0.417000       1.00800           0
     25858 TIP3     4020     TIP3     OH2      OT      -0.834000       15.9994           0
     25859 TIP3     4020     TIP3     H1       HT       0.417000       1.00800           0
     25860 TIP3     4020     TIP3     H2       HT       0.417000       1.00800           0
     25861 TIP3     4021     TIP3     OH2      OT      -0.834000       15.9994           0
     25862 TIP3     4021     TIP3     H1       HT       0.417000       1.00800           0
     25863 TIP3     4021     TIP3     H2       HT       0.417000       1.00800           0
     25864 TIP3     4022     TIP3     OH2      OT      -0.834000       15.9994           0
     25865 TIP3     4022     TIP3     H1       HT       0.417000       1.00800           0
     25866 TIP3     4022     TIP3     H2       HT       0.417000       1.00800           0
     25867 TIP3     4023     TIP3     OH2      OT      -0.834000       15.9994           0
     25868 TIP3     4023     TIP3     H1       HT       0.417000       1.00800           0
     25869 TIP3     4023     TIP3     H2       HT       0.417000       1.00800           0
     25870 TIP3     4024     TIP3     OH2      OT      -0.834000       15.9994           0
     25871 TIP3     4024     TIP3     H1       HT       0.417000       1.00800           0
     25872 TIP3     4024     TIP3     H2       HT       0.417000       1.00800           0
     25873 TIP3     4025     TIP3     OH2      OT      -0.834000       15.9994           0
     25874 TIP3     4025     TIP3     H1       HT       0.417000       1.00800           0
     25875 TIP3     4025     TIP3     H2       HT       0.417000       1.00800           0
     25876 TIP3     4026     TIP3     OH2      OT      -0.834000       15.9994           0
     25877 TIP3     4026     TIP3     H1       HT       0.417000       1.00800           0
     25878 TIP3     4026     TIP3     H2       HT       0.417000       1.00800           0
     25879 TIP3     4027     TIP3     OH2      OT      -0.834000       15.9994           0
     25880 TIP3     4027     TIP3     H1       HT       0.417000       1.00800           0
     25881 TIP3     4027     TIP3     H2       HT       0.417000       1.00800           0
     25882 TIP3     4028     TIP3     OH2      OT      -0.834000       15.9994           0
     25883 TIP3     4028     TIP3     H1       HT       0.417000       1.00800           0
     25884 TIP3     4028     TIP3     H2       HT       0.417000       1.00800           0
     25885 TIP3     4029     TIP3     OH2      OT      -0.834000       15.9994           0
     25886 TIP3     4029     TIP3     H1       HT       0.417000       1.00800           0
     25887 TIP3     4029     TIP3     H2       HT       0.417000       1.00800           0
     25888 TIP3     4030     TIP3     OH2      OT      -0.834000       15.9994           0
     25889 TIP3     4030     TIP3     H1       HT       0.417000       1.00800           0
     25890 TIP3     4030     TIP3     H2       HT       0.417000       1.00800           0
     25891 TIP3     4031     TIP3     OH2      OT      -0.834000       15.9994           0
     25892 TIP3     4031     TIP3     H1       HT       0.417000       1.00800           0
     25893 TIP3     4031     TIP3     H2       HT       0.417000       1.00800           0
     25894 TIP3     4032     TIP3     OH2      OT      -0.834000       15.9994           0
     25895 TIP3     4032     TIP3     H1       HT       0.417000       1.00800           0
     25896 TIP3     4032     TIP3     H2       HT       0.417000       1.00800           0
     25897 TIP3     4033     TIP3     OH2      OT      -0.834000       15.9994           0
     25898 TIP3     4033     TIP3     H1       HT       0.417000       1.00800           0
     25899 TIP3     4033     TIP3     H2       HT       0.417000       1.00800           0
     25900 TIP3     4034     TIP3     OH2      OT      -0.834000       15.9994           0
     25901 TIP3     4034     TIP3     H1       HT       0.417000       1.00800           0
     25902 TIP3     4034     TIP3     H2       HT       0.417000       1.00800           0
     25903 TIP3     4035     TIP3     OH2      OT      -0.834000       15.9994           0
     25904 TIP3     4035     TIP3     H1       HT       0.417000       1.00800           0
     25905 TIP3     4035     TIP3     H2       HT       0.417000       1.00800           0
     25906 TIP3     4036     TIP3     OH2      OT      -0.834000       15.9994           0
     25907 TIP3     4036     TIP3     H1       HT       0.417000       1.00800           0
     25908 TIP3     4036     TIP3     H2       HT       0.417000       1.00800           0
     25909 TIP3     4037     TIP3     OH2      OT      -0.834000       15.9994           0
     25910 TIP3     4037     TIP3     H1       HT       0.417000       1.00800           0
     25911 TIP3     4037     TIP3     H2       HT       0.417000       1.00800           0
     25912 TIP3     4038     TIP3     OH2      OT      -0.834000       15.9994           0
     25913 TIP3     4038     TIP3     H1       HT       0.417000       1.00800           0
     25914 TIP3     4038     TIP3     H2       HT       0.417000       1.00800           0
     25915 TIP3     4039     TIP3     OH2      OT      -0.834000       15.9994           0
     25916 TIP3     4039     TIP3     H1       HT       0.417000       1.00800           0
     25917 TIP3     4039     TIP3     H2       HT       0.417000       1.00800           0
     25918 TIP3     4040     TIP3     OH2      OT      -0.834000       15.9994           0
     25919 TIP3     4040     TIP3     H1       HT       0.417000       1.00800           0
     25920 TIP3     4040     TIP3     H2       HT       0.417000       1.00800           0
     25921 TIP3     4041     TIP3     OH2      OT      -0.834000       15.9994           0
     25922 TIP3     4041     TIP3     H1       HT       0.417000       1.00800           0
     25923 TIP3     4041     TIP3     H2       HT       0.417000       1.00800           0
     25924 TIP3     4042     TIP3     OH2      OT      -0.834000       15.9994           0
     25925 TIP3     4042     TIP3     H1       HT       0.417000       1.00800           0
     25926 TIP3     4042     TIP3     H2       HT       0.417000       1.00800           0
     25927 TIP3     4043     TIP3     OH2      OT      -0.834000       15.9994           0
     25928 TIP3     4043     TIP3     H1       HT       0.417000       1.00800           0
     25929 TIP3     4043     TIP3     H2       HT       0.417000       1.00800           0
     25930 TIP3     4044     TIP3     OH2      OT      -0.834000       15.9994           0
     25931 TIP3     4044     TIP3     H1       HT       0.417000       1.00800           0
     25932 TIP3     4044     TIP3     H2       HT       0.417000       1.00800           0
     25933 TIP3     4045     TIP3     OH2      OT      -0.834000       15.9994           0
     25934 TIP3     4045     TIP3     H1       HT       0.417000       1.00800           0
     25935 TIP3     4045     TIP3     H2       HT       0.417000       1.00800           0
     25936 TIP3     4046     TIP3     OH2      OT      -0.834000       15.9994           0
     25937 TIP3     4046     TIP3     H1       HT       0.417000       1.00800           0
     25938 TIP3     4046     TIP3     H2       HT       0.417000       1.00800           0
     25939 TIP3     4047     TIP3     OH2      OT      -0.834000       15.9994           0
     25940 TIP3     4047     TIP3     H1       HT       0.417000       1.00800           0
     25941 TIP3     4047     TIP3     H2       HT       0.417000       1.00800           0
     25942 TIP3     4048     TIP3     OH2      OT      -0.834000       15.9994           0
     25943 TIP3     4048     TIP3     H1       HT       0.417000       1.00800           0
     25944 TIP3     4048     TIP3     H2       HT       0.417000       1.00800           0
     25945 TIP3     4049     TIP3     OH2      OT      -0.834000       15.9994           0
     25946 TIP3     4049     TIP3     H1       HT       0.417000       1.00800           0
     25947 TIP3     4049     TIP3     H2       HT       0.417000       1.00800           0
     25948 TIP3     4050     TIP3     OH2      OT      -0.834000       15.9994           0
     25949 TIP3     4050     TIP3     H1       HT       0.417000       1.00800           0
     25950 TIP3     4050     TIP3     H2       HT       0.417000       1.00800           0
     25951 TIP3     4051     TIP3     OH2      OT      -0.834000       15.9994           0
     25952 TIP3     4051     TIP3     H1       HT       0.417000       1.00800           0
     25953 TIP3     4051     TIP3     H2       HT       0.417000       1.00800           0
     25954 TIP3     4052     TIP3     OH2      OT      -0.834000       15.9994           0
     25955 TIP3     4052     TIP3     H1       HT       0.417000       1.00800           0
     25956 TIP3     4052     TIP3     H2       HT       0.417000       1.00800           0
     25957 TIP3     4053     TIP3     OH2      OT      -0.834000       15.9994           0
     25958 TIP3     4053     TIP3     H1       HT       0.417000       1.00800           0
     25959 TIP3     4053     TIP3     H2       HT       0.417000       1.00800           0
     25960 TIP3     4054     TIP3     OH2      OT      -0.834000       15.9994           0
     25961 TIP3     4054     TIP3     H1       HT       0.417000       1.00800           0
     25962 TIP3     4054     TIP3     H2       HT       0.417000       1.00800           0
     25963 TIP3     4055     TIP3     OH2      OT      -0.834000       15.9994           0
     25964 TIP3     4055     TIP3     H1       HT       0.417000       1.00800           0
     25965 TIP3     4055     TIP3     H2       HT       0.417000       1.00800           0
     25966 TIP3     4056     TIP3     OH2      OT      -0.834000       15.9994           0
     25967 TIP3     4056     TIP3     H1       HT       0.417000       1.00800           0
     25968 TIP3     4056     TIP3     H2       HT       0.417000       1.00800           0
     25969 TIP3     4057     TIP3     OH2      OT      -0.834000       15.9994           0
     25970 TIP3     4057     TIP3     H1       HT       0.417000       1.00800           0
     25971 TIP3     4057     TIP3     H2       HT       0.417000       1.00800           0
     25972 TIP3     4058     TIP3     OH2      OT      -0.834000       15.9994           0
     25973 TIP3     4058     TIP3     H1       HT       0.417000       1.00800           0
     25974 TIP3     4058     TIP3     H2       HT       0.417000       1.00800           0
     25975 TIP3     4059     TIP3     OH2      OT      -0.834000       15.9994           0
     25976 TIP3     4059     TIP3     H1       HT       0.417000       1.00800           0
     25977 TIP3     4059     TIP3     H2       HT       0.417000       1.00800           0
     25978 TIP3     4060     TIP3     OH2      OT      -0.834000       15.9994           0
     25979 TIP3     4060     TIP3     H1       HT       0.417000       1.00800           0
     25980 TIP3     4060     TIP3     H2       HT       0.417000       1.00800           0
     25981 TIP3     4061     TIP3     OH2      OT      -0.834000       15.9994           0
     25982 TIP3     4061     TIP3     H1       HT       0.417000       1.00800           0
     25983 TIP3     4061     TIP3     H2       HT       0.417000       1.00800           0
     25984 TIP3     4062     TIP3     OH2      OT      -0.834000       15.9994           0
     25985 TIP3     4062     TIP3     H1       HT       0.417000       1.00800           0
     25986 TIP3     4062     TIP3     H2       HT       0.417000       1.00800           0
     25987 TIP3     4063     TIP3     OH2      OT      -0.834000       15.9994           0
     25988 TIP3     4063     TIP3     H1       HT       0.417000       1.00800           0
     25989 TIP3     4063     TIP3     H2       HT       0.417000       1.00800           0
     25990 TIP3     4064     TIP3     OH2      OT      -0.834000       15.9994           0
     25991 TIP3     4064     TIP3     H1       HT       0.417000       1.00800           0
     25992 TIP3     4064     TIP3     H2       HT       0.417000       1.00800           0
     25993 TIP3     4065     TIP3     OH2      OT      -0.834000       15.9994           0
     25994 TIP3     4065     TIP3     H1       HT       0.417000       1.00800           0
     25995 TIP3     4065     TIP3     H2       HT       0.417000       1.00800           0
     25996 TIP3     4066     TIP3     OH2      OT      -0.834000       15.9994           0
     25997 TIP3     4066     TIP3     H1       HT       0.417000       1.00800           0
     25998 TIP3     4066     TIP3     H2       HT       0.417000       1.00800           0
     25999 TIP3     4067     TIP3     OH2      OT      -0.834000       15.9994           0
     26000 TIP3     4067     TIP3     H1       HT       0.417000       1.00800           0
     26001 TIP3     4067     TIP3     H2       HT       0.417000       1.00800           0
     26002 TIP3     4068     TIP3     OH2      OT      -0.834000       15.9994           0
     26003 TIP3     4068     TIP3     H1       HT       0.417000       1.00800           0
     26004 TIP3     4068     TIP3     H2       HT       0.417000       1.00800           0
     26005 TIP3     4069     TIP3     OH2      OT      -0.834000       15.9994           0
     26006 TIP3     4069     TIP3     H1       HT       0.417000       1.00800           0
     26007 TIP3     4069     TIP3     H2       HT       0.417000       1.00800           0
     26008 TIP3     4070     TIP3     OH2      OT      -0.834000       15.9994           0
     26009 TIP3     4070     TIP3     H1       HT       0.417000       1.00800           0
     26010 TIP3     4070     TIP3     H2       HT       0.417000       1.00800           0
     26011 TIP3     4071     TIP3     OH2      OT      -0.834000       15.9994           0
     26012 TIP3     4071     TIP3     H1       HT       0.417000       1.00800           0
     26013 TIP3     4071     TIP3     H2       HT       0.417000       1.00800           0
     26014 TIP3     4072     TIP3     OH2      OT      -0.834000       15.9994           0
     26015 TIP3     4072     TIP3     H1       HT       0.417000       1.00800           0
     26016 TIP3     4072     TIP3     H2       HT       0.417000       1.00800           0
     26017 TIP3     4073     TIP3     OH2      OT      -0.834000       15.9994           0
     26018 TIP3     4073     TIP3     H1       HT       0.417000       1.00800           0
     26019 TIP3     4073     TIP3     H2       HT       0.417000       1.00800           0
     26020 TIP3     4074     TIP3     OH2      OT      -0.834000       15.9994           0
     26021 TIP3     4074     TIP3     H1       HT       0.417000       1.00800           0
     26022 TIP3     4074     TIP3     H2       HT       0.417000       1.00800           0
     26023 TIP3     4075     TIP3     OH2      OT      -0.834000       15.9994           0
     26024 TIP3     4075     TIP3     H1       HT       0.417000       1.00800           0
     26025 TIP3     4075     TIP3     H2       HT       0.417000       1.00800           0
     26026 TIP3     4076     TIP3     OH2      OT      -0.834000       15.9994           0
     26027 TIP3     4076     TIP3     H1       HT       0.417000       1.00800           0
     26028 TIP3     4076     TIP3     H2       HT       0.417000       1.00800           0
     26029 TIP3     4077     TIP3     OH2      OT      -0.834000       15.9994           0
     26030 TIP3     4077     TIP3     H1       HT       0.417000       1.00800           0
     26031 TIP3     4077     TIP3     H2       HT       0.417000       1.00800           0
     26032 TIP3     4078     TIP3     OH2      OT      -0.834000       15.9994           0
     26033 TIP3     4078     TIP3     H1       HT       0.417000       1.00800           0
     26034 TIP3     4078     TIP3     H2       HT       0.417000       1.00800           0
     26035 TIP3     4079     TIP3     OH2      OT      -0.834000       15.9994           0
     26036 TIP3     4079     TIP3     H1       HT       0.417000       1.00800           0
     26037 TIP3     4079     TIP3     H2       HT       0.417000       1.00800           0
     26038 TIP3     4080     TIP3     OH2      OT      -0.834000       15.9994           0
     26039 TIP3     4080     TIP3     H1       HT       0.417000       1.00800           0
     26040 TIP3     4080     TIP3     H2       HT       0.417000       1.00800           0
     26041 TIP3     4081     TIP3     OH2      OT      -0.834000       15.9994           0
     26042 TIP3     4081     TIP3     H1       HT       0.417000       1.00800           0
     26043 TIP3     4081     TIP3     H2       HT       0.417000       1.00800           0
     26044 TIP3     4082     TIP3     OH2      OT      -0.834000       15.9994           0
     26045 TIP3     4082     TIP3     H1       HT       0.417000       1.00800           0
     26046 TIP3     4082     TIP3     H2       HT       0.417000       1.00800           0
     26047 TIP3     4083     TIP3     OH2      OT      -0.834000       15.9994           0
     26048 TIP3     4083     TIP3     H1       HT       0.417000       1.00800           0
     26049 TIP3     4083     TIP3     H2       HT       0.417000       1.00800           0
     26050 TIP3     4084     TIP3     OH2      OT      -0.834000       15.9994           0
     26051 TIP3     4084     TIP3     H1       HT       0.417000       1.00800           0
     26052 TIP3     4084     TIP3     H2       HT       0.417000       1.00800           0
     26053 TIP3     4085     TIP3     OH2      OT      -0.834000       15.9994           0
     26054 TIP3     4085     TIP3     H1       HT       0.417000       1.00800           0
     26055 TIP3     4085     TIP3     H2       HT       0.417000       1.00800           0
     26056 TIP3     4086     TIP3     OH2      OT      -0.834000       15.9994           0
     26057 TIP3     4086     TIP3     H1       HT       0.417000       1.00800           0
     26058 TIP3     4086     TIP3     H2       HT       0.417000       1.00800           0
     26059 TIP3     4087     TIP3     OH2      OT      -0.834000       15.9994           0
     26060 TIP3     4087     TIP3     H1       HT       0.417000       1.00800           0
     26061 TIP3     4087     TIP3     H2       HT       0.417000       1.00800           0
     26062 TIP3     4088     TIP3     OH2      OT      -0.834000       15.9994           0
     26063 TIP3     4088     TIP3     H1       HT       0.417000       1.00800           0
     26064 TIP3     4088     TIP3     H2       HT       0.417000       1.00800           0
     26065 TIP3     4089     TIP3     OH2      OT      -0.834000       15.9994           0
     26066 TIP3     4089     TIP3     H1       HT       0.417000       1.00800           0
     26067 TIP3     4089     TIP3     H2       HT       0.417000       1.00800           0
     26068 TIP3     4090     TIP3     OH2      OT      -0.834000       15.9994           0
     26069 TIP3     4090     TIP3     H1       HT       0.417000       1.00800           0
     26070 TIP3     4090     TIP3     H2       HT       0.417000       1.00800           0
     26071 TIP3     4091     TIP3     OH2      OT      -0.834000       15.9994           0
     26072 TIP3     4091     TIP3     H1       HT       0.417000       1.00800           0
     26073 TIP3     4091     TIP3     H2       HT       0.417000       1.00800           0
     26074 TIP3     4092     TIP3     OH2      OT      -0.834000       15.9994           0
     26075 TIP3     4092     TIP3     H1       HT       0.417000       1.00800           0
     26076 TIP3     4092     TIP3     H2       HT       0.417000       1.00800           0
     26077 TIP3     4093     TIP3     OH2      OT      -0.834000       15.9994           0
     26078 TIP3     4093     TIP3     H1       HT       0.417000       1.00800           0
     26079 TIP3     4093     TIP3     H2       HT       0.417000       1.00800           0
     26080 TIP3     4094     TIP3     OH2      OT      -0.834000       15.9994           0
     26081 TIP3     4094     TIP3     H1       HT       0.417000       1.00800           0
     26082 TIP3     4094     TIP3     H2       HT       0.417000       1.00800           0
     26083 TIP3     4095     TIP3     OH2      OT      -0.834000       15.9994           0
     26084 TIP3     4095     TIP3     H1       HT       0.417000       1.00800           0
     26085 TIP3     4095     TIP3     H2       HT       0.417000       1.00800           0
     26086 TIP3     4096     TIP3     OH2      OT      -0.834000       15.9994           0
     26087 TIP3     4096     TIP3     H1       HT       0.417000       1.00800           0
     26088 TIP3     4096     TIP3     H2       HT       0.417000       1.00800           0
     26089 TIP3     4097     TIP3     OH2      OT      -0.834000       15.9994           0
     26090 TIP3     4097     TIP3     H1       HT       0.417000       1.00800           0
     26091 TIP3     4097     TIP3     H2       HT       0.417000       1.00800           0
     26092 TIP3     4098     TIP3     OH2      OT      -0.834000       15.9994           0
     26093 TIP3     4098     TIP3     H1       HT       0.417000       1.00800           0
     26094 TIP3     4098     TIP3     H2       HT       0.417000       1.00800           0
     26095 TIP3     4099     TIP3     OH2      OT      -0.834000       15.9994           0
     26096 TIP3     4099     TIP3     H1       HT       0.417000       1.00800           0
     26097 TIP3     4099     TIP3     H2       HT       0.417000       1.00800           0
     26098 TIP3     4100     TIP3     OH2      OT      -0.834000       15.9994           0
     26099 TIP3     4100     TIP3     H1       HT       0.417000       1.00800           0
     26100 TIP3     4100     TIP3     H2       HT       0.417000       1.00800           0
     26101 TIP3     4101     TIP3     OH2      OT      -0.834000       15.9994           0
     26102 TIP3     4101     TIP3     H1       HT       0.417000       1.00800           0
     26103 TIP3     4101     TIP3     H2       HT       0.417000       1.00800           0
     26104 TIP3     4102     TIP3     OH2      OT      -0.834000       15.9994           0
     26105 TIP3     4102     TIP3     H1       HT       0.417000       1.00800           0
     26106 TIP3     4102     TIP3     H2       HT       0.417000       1.00800           0
     26107 TIP3     4103     TIP3     OH2      OT      -0.834000       15.9994           0
     26108 TIP3     4103     TIP3     H1       HT       0.417000       1.00800           0
     26109 TIP3     4103     TIP3     H2       HT       0.417000       1.00800           0
     26110 TIP3     4104     TIP3     OH2      OT      -0.834000       15.9994           0
     26111 TIP3     4104     TIP3     H1       HT       0.417000       1.00800           0
     26112 TIP3     4104     TIP3     H2       HT       0.417000       1.00800           0
     26113 TIP3     4105     TIP3     OH2      OT      -0.834000       15.9994           0
     26114 TIP3     4105     TIP3     H1       HT       0.417000       1.00800           0
     26115 TIP3     4105     TIP3     H2       HT       0.417000       1.00800           0
     26116 TIP3     4106     TIP3     OH2      OT      -0.834000       15.9994           0
     26117 TIP3     4106     TIP3     H1       HT       0.417000       1.00800           0
     26118 TIP3     4106     TIP3     H2       HT       0.417000       1.00800           0
     26119 TIP3     4107     TIP3     OH2      OT      -0.834000       15.9994           0
     26120 TIP3     4107     TIP3     H1       HT       0.417000       1.00800           0
     26121 TIP3     4107     TIP3     H2       HT       0.417000       1.00800           0
     26122 TIP3     4108     TIP3     OH2      OT      -0.834000       15.9994           0
     26123 TIP3     4108     TIP3     H1       HT       0.417000       1.00800           0
     26124 TIP3     4108     TIP3     H2       HT       0.417000       1.00800           0
     26125 TIP3     4109     TIP3     OH2      OT      -0.834000       15.9994           0
     26126 TIP3     4109     TIP3     H1       HT       0.417000       1.00800           0
     26127 TIP3     4109     TIP3     H2       HT       0.417000       1.00800           0
     26128 TIP3     4110     TIP3     OH2      OT      -0.834000       15.9994           0
     26129 TIP3     4110     TIP3     H1       HT       0.417000       1.00800           0
     26130 TIP3     4110     TIP3     H2       HT       0.417000       1.00800           0
     26131 TIP3     4111     TIP3     OH2      OT      -0.834000       15.9994           0
     26132 TIP3     4111     TIP3     H1       HT       0.417000       1.00800           0
     26133 TIP3     4111     TIP3     H2       HT       0.417000       1.00800           0
     26134 TIP3     4112     TIP3     OH2      OT      -0.834000       15.9994           0
     26135 TIP3     4112     TIP3     H1       HT       0.417000       1.00800           0
     26136 TIP3     4112     TIP3     H2       HT       0.417000       1.00800           0
     26137 TIP3     4113     TIP3     OH2      OT      -0.834000       15.9994           0
     26138 TIP3     4113     TIP3     H1       HT       0.417000       1.00800           0
     26139 TIP3     4113     TIP3     H2       HT       0.417000       1.00800           0
     26140 TIP3     4114     TIP3     OH2      OT      -0.834000       15.9994           0
     26141 TIP3     4114     TIP3     H1       HT       0.417000       1.00800           0
     26142 TIP3     4114     TIP3     H2       HT       0.417000       1.00800           0
     26143 TIP3     4115     TIP3     OH2      OT      -0.834000       15.9994           0
     26144 TIP3     4115     TIP3     H1       HT       0.417000       1.00800           0
     26145 TIP3     4115     TIP3     H2       HT       0.417000       1.00800           0
     26146 TIP3     4116     TIP3     OH2      OT      -0.834000       15.9994           0
     26147 TIP3     4116     TIP3     H1       HT       0.417000       1.00800           0
     26148 TIP3     4116     TIP3     H2       HT       0.417000       1.00800           0
     26149 TIP3     4117     TIP3     OH2      OT      -0.834000       15.9994           0
     26150 TIP3     4117     TIP3     H1       HT       0.417000       1.00800           0
     26151 TIP3     4117     TIP3     H2       HT       0.417000       1.00800           0
     26152 TIP3     4118     TIP3     OH2      OT      -0.834000       15.9994           0
     26153 TIP3     4118     TIP3     H1       HT       0.417000       1.00800           0
     26154 TIP3     4118     TIP3     H2       HT       0.417000       1.00800           0
     26155 TIP3     4119     TIP3     OH2      OT      -0.834000       15.9994           0
     26156 TIP3     4119     TIP3     H1       HT       0.417000       1.00800           0
     26157 TIP3     4119     TIP3     H2       HT       0.417000       1.00800           0
     26158 TIP3     4120     TIP3     OH2      OT      -0.834000       15.9994           0
     26159 TIP3     4120     TIP3     H1       HT       0.417000       1.00800           0
     26160 TIP3     4120     TIP3     H2       HT       0.417000       1.00800           0
     26161 TIP3     4121     TIP3     OH2      OT      -0.834000       15.9994           0
     26162 TIP3     4121     TIP3     H1       HT       0.417000       1.00800           0
     26163 TIP3     4121     TIP3     H2       HT       0.417000       1.00800           0
     26164 TIP3     4122     TIP3     OH2      OT      -0.834000       15.9994           0
     26165 TIP3     4122     TIP3     H1       HT       0.417000       1.00800           0
     26166 TIP3     4122     TIP3     H2       HT       0.417000       1.00800           0
     26167 TIP3     4123     TIP3     OH2      OT      -0.834000       15.9994           0
     26168 TIP3     4123     TIP3     H1       HT       0.417000       1.00800           0
     26169 TIP3     4123     TIP3     H2       HT       0.417000       1.00800           0
     26170 TIP3     4124     TIP3     OH2      OT      -0.834000       15.9994           0
     26171 TIP3     4124     TIP3     H1       HT       0.417000       1.00800           0
     26172 TIP3     4124     TIP3     H2       HT       0.417000       1.00800           0
     26173 TIP3     4125     TIP3     OH2      OT      -0.834000       15.9994           0
     26174 TIP3     4125     TIP3     H1       HT       0.417000       1.00800           0
     26175 TIP3     4125     TIP3     H2       HT       0.417000       1.00800           0
     26176 TIP3     4126     TIP3     OH2      OT      -0.834000       15.9994           0
     26177 TIP3     4126     TIP3     H1       HT       0.417000       1.00800           0
     26178 TIP3     4126     TIP3     H2       HT       0.417000       1.00800           0
     26179 TIP3     4127     TIP3     OH2      OT      -0.834000       15.9994           0
     26180 TIP3     4127     TIP3     H1       HT       0.417000       1.00800           0
     26181 TIP3     4127     TIP3     H2       HT       0.417000       1.00800           0
     26182 TIP3     4128     TIP3     OH2      OT      -0.834000       15.9994           0
     26183 TIP3     4128     TIP3     H1       HT       0.417000       1.00800           0
     26184 TIP3     4128     TIP3     H2       HT       0.417000       1.00800           0
     26185 TIP3     4129     TIP3     OH2      OT      -0.834000       15.9994           0
     26186 TIP3     4129     TIP3     H1       HT       0.417000       1.00800           0
     26187 TIP3     4129     TIP3     H2       HT       0.417000       1.00800           0
     26188 TIP3     4130     TIP3     OH2      OT      -0.834000       15.9994           0
     26189 TIP3     4130     TIP3     H1       HT       0.417000       1.00800           0
     26190 TIP3     4130     TIP3     H2       HT       0.417000       1.00800           0
     26191 TIP3     4131     TIP3     OH2      OT      -0.834000       15.9994           0
     26192 TIP3     4131     TIP3     H1       HT       0.417000       1.00800           0
     26193 TIP3     4131     TIP3     H2       HT       0.417000       1.00800           0
     26194 TIP3     4132     TIP3     OH2      OT      -0.834000       15.9994           0
     26195 TIP3     4132     TIP3     H1       HT       0.417000       1.00800           0
     26196 TIP3     4132     TIP3     H2       HT       0.417000       1.00800           0
     26197 TIP3     4133     TIP3     OH2      OT      -0.834000       15.9994           0
     26198 TIP3     4133     TIP3     H1       HT       0.417000       1.00800           0
     26199 TIP3     4133     TIP3     H2       HT       0.417000       1.00800           0
     26200 TIP3     4134     TIP3     OH2      OT      -0.834000       15.9994           0
     26201 TIP3     4134     TIP3     H1       HT       0.417000       1.00800           0
     26202 TIP3     4134     TIP3     H2       HT       0.417000       1.00800           0
     26203 TIP3     4135     TIP3     OH2      OT      -0.834000       15.9994           0
     26204 TIP3     4135     TIP3     H1       HT       0.417000       1.00800           0
     26205 TIP3     4135     TIP3     H2       HT       0.417000       1.00800           0
     26206 TIP3     4136     TIP3     OH2      OT      -0.834000       15.9994           0
     26207 TIP3     4136     TIP3     H1       HT       0.417000       1.00800           0
     26208 TIP3     4136     TIP3     H2       HT       0.417000       1.00800           0
     26209 TIP3     4137     TIP3     OH2      OT      -0.834000       15.9994           0
     26210 TIP3     4137     TIP3     H1       HT       0.417000       1.00800           0
     26211 TIP3     4137     TIP3     H2       HT       0.417000       1.00800           0
     26212 TIP3     4138     TIP3     OH2      OT      -0.834000       15.9994           0
     26213 TIP3     4138     TIP3     H1       HT       0.417000       1.00800           0
     26214 TIP3     4138     TIP3     H2       HT       0.417000       1.00800           0
     26215 TIP3     4139     TIP3     OH2      OT      -0.834000       15.9994           0
     26216 TIP3     4139     TIP3     H1       HT       0.417000       1.00800           0
     26217 TIP3     4139     TIP3     H2       HT       0.417000       1.00800           0
     26218 TIP3     4140     TIP3     OH2      OT      -0.834000       15.9994           0
     26219 TIP3     4140     TIP3     H1       HT       0.417000       1.00800           0
     26220 TIP3     4140     TIP3     H2       HT       0.417000       1.00800           0
     26221 TIP3     4141     TIP3     OH2      OT      -0.834000       15.9994           0
     26222 TIP3     4141     TIP3     H1       HT       0.417000       1.00800           0
     26223 TIP3     4141     TIP3     H2       HT       0.417000       1.00800           0
     26224 TIP3     4142     TIP3     OH2      OT      -0.834000       15.9994           0
     26225 TIP3     4142     TIP3     H1       HT       0.417000       1.00800           0
     26226 TIP3     4142     TIP3     H2       HT       0.417000       1.00800           0
     26227 TIP3     4143     TIP3     OH2      OT      -0.834000       15.9994           0
     26228 TIP3     4143     TIP3     H1       HT       0.417000       1.00800           0
     26229 TIP3     4143     TIP3     H2       HT       0.417000       1.00800           0
     26230 TIP3     4144     TIP3     OH2      OT      -0.834000       15.9994           0
     26231 TIP3     4144     TIP3     H1       HT       0.417000       1.00800           0
     26232 TIP3     4144     TIP3     H2       HT       0.417000       1.00800           0
     26233 TIP3     4145     TIP3     OH2      OT      -0.834000       15.9994           0
     26234 TIP3     4145     TIP3     H1       HT       0.417000       1.00800           0
     26235 TIP3     4145     TIP3     H2       HT       0.417000       1.00800           0
     26236 TIP3     4146     TIP3     OH2      OT      -0.834000       15.9994           0
     26237 TIP3     4146     TIP3     H1       HT       0.417000       1.00800           0
     26238 TIP3     4146     TIP3     H2       HT       0.417000       1.00800           0
     26239 TIP3     4147     TIP3     OH2      OT      -0.834000       15.9994           0
     26240 TIP3     4147     TIP3     H1       HT       0.417000       1.00800           0
     26241 TIP3     4147     TIP3     H2       HT       0.417000       1.00800           0
     26242 TIP3     4148     TIP3     OH2      OT      -0.834000       15.9994           0
     26243 TIP3     4148     TIP3     H1       HT       0.417000       1.00800           0
     26244 TIP3     4148     TIP3     H2       HT       0.417000       1.00800           0
     26245 TIP3     4149     TIP3     OH2      OT      -0.834000       15.9994           0
     26246 TIP3     4149     TIP3     H1       HT       0.417000       1.00800           0
     26247 TIP3     4149     TIP3     H2       HT       0.417000       1.00800           0
     26248 TIP3     4150     TIP3     OH2      OT      -0.834000       15.9994           0
     26249 TIP3     4150     TIP3     H1       HT       0.417000       1.00800           0
     26250 TIP3     4150     TIP3     H2       HT       0.417000       1.00800           0
     26251 TIP3     4151     TIP3     OH2      OT      -0.834000       15.9994           0
     26252 TIP3     4151     TIP3     H1       HT       0.417000       1.00800           0
     26253 TIP3     4151     TIP3     H2       HT       0.417000       1.00800           0
     26254 TIP3     4152     TIP3     OH2      OT      -0.834000       15.9994           0
     26255 TIP3     4152     TIP3     H1       HT       0.417000       1.00800           0
     26256 TIP3     4152     TIP3     H2       HT       0.417000       1.00800           0
     26257 TIP3     4153     TIP3     OH2      OT      -0.834000       15.9994           0
     26258 TIP3     4153     TIP3     H1       HT       0.417000       1.00800           0
     26259 TIP3     4153     TIP3     H2       HT       0.417000       1.00800           0
     26260 TIP3     4154     TIP3     OH2      OT      -0.834000       15.9994           0
     26261 TIP3     4154     TIP3     H1       HT       0.417000       1.00800           0
     26262 TIP3     4154     TIP3     H2       HT       0.417000       1.00800           0
     26263 TIP3     4155     TIP3     OH2      OT      -0.834000       15.9994           0
     26264 TIP3     4155     TIP3     H1       HT       0.417000       1.00800           0
     26265 TIP3     4155     TIP3     H2       HT       0.417000       1.00800           0
     26266 TIP3     4156     TIP3     OH2      OT      -0.834000       15.9994           0
     26267 TIP3     4156     TIP3     H1       HT       0.417000       1.00800           0
     26268 TIP3     4156     TIP3     H2       HT       0.417000       1.00800           0
     26269 TIP3     4157     TIP3     OH2      OT      -0.834000       15.9994           0
     26270 TIP3     4157     TIP3     H1       HT       0.417000       1.00800           0
     26271 TIP3     4157     TIP3     H2       HT       0.417000       1.00800           0
     26272 TIP3     4158     TIP3     OH2      OT      -0.834000       15.9994           0
     26273 TIP3     4158     TIP3     H1       HT       0.417000       1.00800           0
     26274 TIP3     4158     TIP3     H2       HT       0.417000       1.00800           0
     26275 TIP3     4159     TIP3     OH2      OT      -0.834000       15.9994           0
     26276 TIP3     4159     TIP3     H1       HT       0.417000       1.00800           0
     26277 TIP3     4159     TIP3     H2       HT       0.417000       1.00800           0
     26278 TIP3     4160     TIP3     OH2      OT      -0.834000       15.9994           0
     26279 TIP3     4160     TIP3     H1       HT       0.417000       1.00800           0
     26280 TIP3     4160     TIP3     H2       HT       0.417000       1.00800           0
     26281 TIP3     4161     TIP3     OH2      OT      -0.834000       15.9994           0
     26282 TIP3     4161     TIP3     H1       HT       0.417000       1.00800           0
     26283 TIP3     4161     TIP3     H2       HT       0.417000       1.00800           0
     26284 TIP3     4162     TIP3     OH2      OT      -0.834000       15.9994           0
     26285 TIP3     4162     TIP3     H1       HT       0.417000       1.00800           0
     26286 TIP3     4162     TIP3     H2       HT       0.417000       1.00800           0
     26287 TIP3     4163     TIP3     OH2      OT      -0.834000       15.9994           0
     26288 TIP3     4163     TIP3     H1       HT       0.417000       1.00800           0
     26289 TIP3     4163     TIP3     H2       HT       0.417000       1.00800           0
     26290 TIP3     4164     TIP3     OH2      OT      -0.834000       15.9994           0
     26291 TIP3     4164     TIP3     H1       HT       0.417000       1.00800           0
     26292 TIP3     4164     TIP3     H2       HT       0.417000       1.00800           0
     26293 TIP3     4165     TIP3     OH2      OT      -0.834000       15.9994           0
     26294 TIP3     4165     TIP3     H1       HT       0.417000       1.00800           0
     26295 TIP3     4165     TIP3     H2       HT       0.417000       1.00800           0
     26296 TIP3     4166     TIP3     OH2      OT      -0.834000       15.9994           0
     26297 TIP3     4166     TIP3     H1       HT       0.417000       1.00800           0
     26298 TIP3     4166     TIP3     H2       HT       0.417000       1.00800           0
     26299 TIP3     4167     TIP3     OH2      OT      -0.834000       15.9994           0
     26300 TIP3     4167     TIP3     H1       HT       0.417000       1.00800           0
     26301 TIP3     4167     TIP3     H2       HT       0.417000       1.00800           0
     26302 TIP3     4168     TIP3     OH2      OT      -0.834000       15.9994           0
     26303 TIP3     4168     TIP3     H1       HT       0.417000       1.00800           0
     26304 TIP3     4168     TIP3     H2       HT       0.417000       1.00800           0
     26305 TIP3     4169     TIP3     OH2      OT      -0.834000       15.9994           0
     26306 TIP3     4169     TIP3     H1       HT       0.417000       1.00800           0
     26307 TIP3     4169     TIP3     H2       HT       0.417000       1.00800           0
     26308 TIP3     4170     TIP3     OH2      OT      -0.834000       15.9994           0
     26309 TIP3     4170     TIP3     H1       HT       0.417000       1.00800           0
     26310 TIP3     4170     TIP3     H2       HT       0.417000       1.00800           0
     26311 TIP3     4171     TIP3     OH2      OT      -0.834000       15.9994           0
     26312 TIP3     4171     TIP3     H1       HT       0.417000       1.00800           0
     26313 TIP3     4171     TIP3     H2       HT       0.417000       1.00800           0
     26314 TIP3     4172     TIP3     OH2      OT      -0.834000       15.9994           0
     26315 TIP3     4172     TIP3     H1       HT       0.417000       1.00800           0
     26316 TIP3     4172     TIP3     H2       HT       0.417000       1.00800           0
     26317 TIP3     4173     TIP3     OH2      OT      -0.834000       15.9994           0
     26318 TIP3     4173     TIP3     H1       HT       0.417000       1.00800           0
     26319 TIP3     4173     TIP3     H2       HT       0.417000       1.00800           0
     26320 TIP3     4174     TIP3     OH2      OT      -0.834000       15.9994           0
     26321 TIP3     4174     TIP3     H1       HT       0.417000       1.00800           0
     26322 TIP3     4174     TIP3     H2       HT       0.417000       1.00800           0
     26323 TIP3     4175     TIP3     OH2      OT      -0.834000       15.9994           0
     26324 TIP3     4175     TIP3     H1       HT       0.417000       1.00800           0
     26325 TIP3     4175     TIP3     H2       HT       0.417000       1.00800           0
     26326 TIP3     4176     TIP3     OH2      OT      -0.834000       15.9994           0
     26327 TIP3     4176     TIP3     H1       HT       0.417000       1.00800           0
     26328 TIP3     4176     TIP3     H2       HT       0.417000       1.00800           0
     26329 TIP3     4177     TIP3     OH2      OT      -0.834000       15.9994           0
     26330 TIP3     4177     TIP3     H1       HT       0.417000       1.00800           0
     26331 TIP3     4177     TIP3     H2       HT       0.417000       1.00800           0
     26332 TIP3     4178     TIP3     OH2      OT      -0.834000       15.9994           0
     26333 TIP3     4178     TIP3     H1       HT       0.417000       1.00800           0
     26334 TIP3     4178     TIP3     H2       HT       0.417000       1.00800           0
     26335 TIP3     4179     TIP3     OH2      OT      -0.834000       15.9994           0
     26336 TIP3     4179     TIP3     H1       HT       0.417000       1.00800           0
     26337 TIP3     4179     TIP3     H2       HT       0.417000       1.00800           0
     26338 TIP3     4180     TIP3     OH2      OT      -0.834000       15.9994           0
     26339 TIP3     4180     TIP3     H1       HT       0.417000       1.00800           0
     26340 TIP3     4180     TIP3     H2       HT       0.417000       1.00800           0
     26341 TIP3     4181     TIP3     OH2      OT      -0.834000       15.9994           0
     26342 TIP3     4181     TIP3     H1       HT       0.417000       1.00800           0
     26343 TIP3     4181     TIP3     H2       HT       0.417000       1.00800           0
     26344 TIP3     4182     TIP3     OH2      OT      -0.834000       15.9994           0
     26345 TIP3     4182     TIP3     H1       HT       0.417000       1.00800           0
     26346 TIP3     4182     TIP3     H2       HT       0.417000       1.00800           0
     26347 TIP3     4183     TIP3     OH2      OT      -0.834000       15.9994           0
     26348 TIP3     4183     TIP3     H1       HT       0.417000       1.00800           0
     26349 TIP3     4183     TIP3     H2       HT       0.417000       1.00800           0
     26350 TIP3     4184     TIP3     OH2      OT      -0.834000       15.9994           0
     26351 TIP3     4184     TIP3     H1       HT       0.417000       1.00800           0
     26352 TIP3     4184     TIP3     H2       HT       0.417000       1.00800           0
     26353 TIP3     4185     TIP3     OH2      OT      -0.834000       15.9994           0
     26354 TIP3     4185     TIP3     H1       HT       0.417000       1.00800           0
     26355 TIP3     4185     TIP3     H2       HT       0.417000       1.00800           0
     26356 TIP3     4186     TIP3     OH2      OT      -0.834000       15.9994           0
     26357 TIP3     4186     TIP3     H1       HT       0.417000       1.00800           0
     26358 TIP3     4186     TIP3     H2       HT       0.417000       1.00800           0
     26359 TIP3     4187     TIP3     OH2      OT      -0.834000       15.9994           0
     26360 TIP3     4187     TIP3     H1       HT       0.417000       1.00800           0
     26361 TIP3     4187     TIP3     H2       HT       0.417000       1.00800           0
     26362 TIP3     4188     TIP3     OH2      OT      -0.834000       15.9994           0
     26363 TIP3     4188     TIP3     H1       HT       0.417000       1.00800           0
     26364 TIP3     4188     TIP3     H2       HT       0.417000       1.00800           0
     26365 TIP3     4189     TIP3     OH2      OT      -0.834000       15.9994           0
     26366 TIP3     4189     TIP3     H1       HT       0.417000       1.00800           0
     26367 TIP3     4189     TIP3     H2       HT       0.417000       1.00800           0
     26368 TIP3     4190     TIP3     OH2      OT      -0.834000       15.9994           0
     26369 TIP3     4190     TIP3     H1       HT       0.417000       1.00800           0
     26370 TIP3     4190     TIP3     H2       HT       0.417000       1.00800           0
     26371 TIP3     4191     TIP3     OH2      OT      -0.834000       15.9994           0
     26372 TIP3     4191     TIP3     H1       HT       0.417000       1.00800           0
     26373 TIP3     4191     TIP3     H2       HT       0.417000       1.00800           0
     26374 TIP3     4192     TIP3     OH2      OT      -0.834000       15.9994           0
     26375 TIP3     4192     TIP3     H1       HT       0.417000       1.00800           0
     26376 TIP3     4192     TIP3     H2       HT       0.417000       1.00800           0
     26377 TIP3     4193     TIP3     OH2      OT      -0.834000       15.9994           0
     26378 TIP3     4193     TIP3     H1       HT       0.417000       1.00800           0
     26379 TIP3     4193     TIP3     H2       HT       0.417000       1.00800           0
     26380 TIP3     4194     TIP3     OH2      OT      -0.834000       15.9994           0
     26381 TIP3     4194     TIP3     H1       HT       0.417000       1.00800           0
     26382 TIP3     4194     TIP3     H2       HT       0.417000       1.00800           0
     26383 TIP3     4195     TIP3     OH2      OT      -0.834000       15.9994           0
     26384 TIP3     4195     TIP3     H1       HT       0.417000       1.00800           0
     26385 TIP3     4195     TIP3     H2       HT       0.417000       1.00800           0
     26386 TIP3     4196     TIP3     OH2      OT      -0.834000       15.9994           0
     26387 TIP3     4196     TIP3     H1       HT       0.417000       1.00800           0
     26388 TIP3     4196     TIP3     H2       HT       0.417000       1.00800           0
     26389 TIP3     4197     TIP3     OH2      OT      -0.834000       15.9994           0
     26390 TIP3     4197     TIP3     H1       HT       0.417000       1.00800           0
     26391 TIP3     4197     TIP3     H2       HT       0.417000       1.00800           0
     26392 TIP3     4198     TIP3     OH2      OT      -0.834000       15.9994           0
     26393 TIP3     4198     TIP3     H1       HT       0.417000       1.00800           0
     26394 TIP3     4198     TIP3     H2       HT       0.417000       1.00800           0
     26395 TIP3     4199     TIP3     OH2      OT      -0.834000       15.9994           0
     26396 TIP3     4199     TIP3     H1       HT       0.417000       1.00800           0
     26397 TIP3     4199     TIP3     H2       HT       0.417000       1.00800           0
     26398 TIP3     4200     TIP3     OH2      OT      -0.834000       15.9994           0
     26399 TIP3     4200     TIP3     H1       HT       0.417000       1.00800           0
     26400 TIP3     4200     TIP3     H2       HT       0.417000       1.00800           0
     26401 TIP3     4201     TIP3     OH2      OT      -0.834000       15.9994           0
     26402 TIP3     4201     TIP3     H1       HT       0.417000       1.00800           0
     26403 TIP3     4201     TIP3     H2       HT       0.417000       1.00800           0
     26404 TIP3     4202     TIP3     OH2      OT      -0.834000       15.9994           0
     26405 TIP3     4202     TIP3     H1       HT       0.417000       1.00800           0
     26406 TIP3     4202     TIP3     H2       HT       0.417000       1.00800           0
     26407 TIP3     4203     TIP3     OH2      OT      -0.834000       15.9994           0
     26408 TIP3     4203     TIP3     H1       HT       0.417000       1.00800           0
     26409 TIP3     4203     TIP3     H2       HT       0.417000       1.00800           0
     26410 TIP3     4204     TIP3     OH2      OT      -0.834000       15.9994           0
     26411 TIP3     4204     TIP3     H1       HT       0.417000       1.00800           0
     26412 TIP3     4204     TIP3     H2       HT       0.417000       1.00800           0
     26413 TIP3     4205     TIP3     OH2      OT      -0.834000       15.9994           0
     26414 TIP3     4205     TIP3     H1       HT       0.417000       1.00800           0
     26415 TIP3     4205     TIP3     H2       HT       0.417000       1.00800           0
     26416 TIP3     4206     TIP3     OH2      OT      -0.834000       15.9994           0
     26417 TIP3     4206     TIP3     H1       HT       0.417000       1.00800           0
     26418 TIP3     4206     TIP3     H2       HT       0.417000       1.00800           0
     26419 TIP3     4207     TIP3     OH2      OT      -0.834000       15.9994           0
     26420 TIP3     4207     TIP3     H1       HT       0.417000       1.00800           0
     26421 TIP3     4207     TIP3     H2       HT       0.417000       1.00800           0
     26422 TIP3     4208     TIP3     OH2      OT      -0.834000       15.9994           0
     26423 TIP3     4208     TIP3     H1       HT       0.417000       1.00800           0
     26424 TIP3     4208     TIP3     H2       HT       0.417000       1.00800           0
     26425 TIP3     4209     TIP3     OH2      OT      -0.834000       15.9994           0
     26426 TIP3     4209     TIP3     H1       HT       0.417000       1.00800           0
     26427 TIP3     4209     TIP3     H2       HT       0.417000       1.00800           0
     26428 TIP3     4210     TIP3     OH2      OT      -0.834000       15.9994           0
     26429 TIP3     4210     TIP3     H1       HT       0.417000       1.00800           0
     26430 TIP3     4210     TIP3     H2       HT       0.417000       1.00800           0
     26431 TIP3     4211     TIP3     OH2      OT      -0.834000       15.9994           0
     26432 TIP3     4211     TIP3     H1       HT       0.417000       1.00800           0
     26433 TIP3     4211     TIP3     H2       HT       0.417000       1.00800           0
     26434 TIP3     4212     TIP3     OH2      OT      -0.834000       15.9994           0
     26435 TIP3     4212     TIP3     H1       HT       0.417000       1.00800           0
     26436 TIP3     4212     TIP3     H2       HT       0.417000       1.00800           0
     26437 TIP3     4213     TIP3     OH2      OT      -0.834000       15.9994           0
     26438 TIP3     4213     TIP3     H1       HT       0.417000       1.00800           0
     26439 TIP3     4213     TIP3     H2       HT       0.417000       1.00800           0
     26440 TIP3     4214     TIP3     OH2      OT      -0.834000       15.9994           0
     26441 TIP3     4214     TIP3     H1       HT       0.417000       1.00800           0
     26442 TIP3     4214     TIP3     H2       HT       0.417000       1.00800           0
     26443 TIP3     4215     TIP3     OH2      OT      -0.834000       15.9994           0
     26444 TIP3     4215     TIP3     H1       HT       0.417000       1.00800           0
     26445 TIP3     4215     TIP3     H2       HT       0.417000       1.00800           0
     26446 TIP3     4216     TIP3     OH2      OT      -0.834000       15.9994           0
     26447 TIP3     4216     TIP3     H1       HT       0.417000       1.00800           0
     26448 TIP3     4216     TIP3     H2       HT       0.417000       1.00800           0
     26449 TIP3     4217     TIP3     OH2      OT      -0.834000       15.9994           0
     26450 TIP3     4217     TIP3     H1       HT       0.417000       1.00800           0
     26451 TIP3     4217     TIP3     H2       HT       0.417000       1.00800           0
     26452 TIP3     4218     TIP3     OH2      OT      -0.834000       15.9994           0
     26453 TIP3     4218     TIP3     H1       HT       0.417000       1.00800           0
     26454 TIP3     4218     TIP3     H2       HT       0.417000       1.00800           0
     26455 TIP3     4219     TIP3     OH2      OT      -0.834000       15.9994           0
     26456 TIP3     4219     TIP3     H1       HT       0.417000       1.00800           0
     26457 TIP3     4219     TIP3     H2       HT       0.417000       1.00800           0
     26458 TIP3     4220     TIP3     OH2      OT      -0.834000       15.9994           0
     26459 TIP3     4220     TIP3     H1       HT       0.417000       1.00800           0
     26460 TIP3     4220     TIP3     H2       HT       0.417000       1.00800           0
     26461 TIP3     4221     TIP3     OH2      OT      -0.834000       15.9994           0
     26462 TIP3     4221     TIP3     H1       HT       0.417000       1.00800           0
     26463 TIP3     4221     TIP3     H2       HT       0.417000       1.00800           0
     26464 TIP3     4222     TIP3     OH2      OT      -0.834000       15.9994           0
     26465 TIP3     4222     TIP3     H1       HT       0.417000       1.00800           0
     26466 TIP3     4222     TIP3     H2       HT       0.417000       1.00800           0
     26467 TIP3     4223     TIP3     OH2      OT      -0.834000       15.9994           0
     26468 TIP3     4223     TIP3     H1       HT       0.417000       1.00800           0
     26469 TIP3     4223     TIP3     H2       HT       0.417000       1.00800           0
     26470 TIP3     4224     TIP3     OH2      OT      -0.834000       15.9994           0
     26471 TIP3     4224     TIP3     H1       HT       0.417000       1.00800           0
     26472 TIP3     4224     TIP3     H2       HT       0.417000       1.00800           0
     26473 TIP3     4225     TIP3     OH2      OT      -0.834000       15.9994           0
     26474 TIP3     4225     TIP3     H1       HT       0.417000       1.00800           0
     26475 TIP3     4225     TIP3     H2       HT       0.417000       1.00800           0
     26476 TIP3     4226     TIP3     OH2      OT      -0.834000       15.9994           0
     26477 TIP3     4226     TIP3     H1       HT       0.417000       1.00800           0
     26478 TIP3     4226     TIP3     H2       HT       0.417000       1.00800           0
     26479 TIP3     4227     TIP3     OH2      OT      -0.834000       15.9994           0
     26480 TIP3     4227     TIP3     H1       HT       0.417000       1.00800           0
     26481 TIP3     4227     TIP3     H2       HT       0.417000       1.00800           0
     26482 TIP3     4228     TIP3     OH2      OT      -0.834000       15.9994           0
     26483 TIP3     4228     TIP3     H1       HT       0.417000       1.00800           0
     26484 TIP3     4228     TIP3     H2       HT       0.417000       1.00800           0
     26485 TIP3     4229     TIP3     OH2      OT      -0.834000       15.9994           0
     26486 TIP3     4229     TIP3     H1       HT       0.417000       1.00800           0
     26487 TIP3     4229     TIP3     H2       HT       0.417000       1.00800           0
     26488 TIP3     4230     TIP3     OH2      OT      -0.834000       15.9994           0
     26489 TIP3     4230     TIP3     H1       HT       0.417000       1.00800           0
     26490 TIP3     4230     TIP3     H2       HT       0.417000       1.00800           0
     26491 TIP3     4231     TIP3     OH2      OT      -0.834000       15.9994           0
     26492 TIP3     4231     TIP3     H1       HT       0.417000       1.00800           0
     26493 TIP3     4231     TIP3     H2       HT       0.417000       1.00800           0
     26494 TIP3     4232     TIP3     OH2      OT      -0.834000       15.9994           0
     26495 TIP3     4232     TIP3     H1       HT       0.417000       1.00800           0
     26496 TIP3     4232     TIP3     H2       HT       0.417000       1.00800           0
     26497 TIP3     4233     TIP3     OH2      OT      -0.834000       15.9994           0
     26498 TIP3     4233     TIP3     H1       HT       0.417000       1.00800           0
     26499 TIP3     4233     TIP3     H2       HT       0.417000       1.00800           0
     26500 TIP3     4234     TIP3     OH2      OT      -0.834000       15.9994           0
     26501 TIP3     4234     TIP3     H1       HT       0.417000       1.00800           0
     26502 TIP3     4234     TIP3     H2       HT       0.417000       1.00800           0
     26503 TIP3     4235     TIP3     OH2      OT      -0.834000       15.9994           0
     26504 TIP3     4235     TIP3     H1       HT       0.417000       1.00800           0
     26505 TIP3     4235     TIP3     H2       HT       0.417000       1.00800           0
     26506 TIP3     4236     TIP3     OH2      OT      -0.834000       15.9994           0
     26507 TIP3     4236     TIP3     H1       HT       0.417000       1.00800           0
     26508 TIP3     4236     TIP3     H2       HT       0.417000       1.00800           0
     26509 TIP3     4237     TIP3     OH2      OT      -0.834000       15.9994           0
     26510 TIP3     4237     TIP3     H1       HT       0.417000       1.00800           0
     26511 TIP3     4237     TIP3     H2       HT       0.417000       1.00800           0
     26512 TIP3     4238     TIP3     OH2      OT      -0.834000       15.9994           0
     26513 TIP3     4238     TIP3     H1       HT       0.417000       1.00800           0
     26514 TIP3     4238     TIP3     H2       HT       0.417000       1.00800           0
     26515 TIP3     4239     TIP3     OH2      OT      -0.834000       15.9994           0
     26516 TIP3     4239     TIP3     H1       HT       0.417000       1.00800           0
     26517 TIP3     4239     TIP3     H2       HT       0.417000       1.00800           0
     26518 TIP3     4240     TIP3     OH2      OT      -0.834000       15.9994           0
     26519 TIP3     4240     TIP3     H1       HT       0.417000       1.00800           0
     26520 TIP3     4240     TIP3     H2       HT       0.417000       1.00800           0
     26521 TIP3     4241     TIP3     OH2      OT      -0.834000       15.9994           0
     26522 TIP3     4241     TIP3     H1       HT       0.417000       1.00800           0
     26523 TIP3     4241     TIP3     H2       HT       0.417000       1.00800           0
     26524 TIP3     4242     TIP3     OH2      OT      -0.834000       15.9994           0
     26525 TIP3     4242     TIP3     H1       HT       0.417000       1.00800           0
     26526 TIP3     4242     TIP3     H2       HT       0.417000       1.00800           0
     26527 TIP3     4243     TIP3     OH2      OT      -0.834000       15.9994           0
     26528 TIP3     4243     TIP3     H1       HT       0.417000       1.00800           0
     26529 TIP3     4243     TIP3     H2       HT       0.417000       1.00800           0
     26530 TIP3     4244     TIP3     OH2      OT      -0.834000       15.9994           0
     26531 TIP3     4244     TIP3     H1       HT       0.417000       1.00800           0
     26532 TIP3     4244     TIP3     H2       HT       0.417000       1.00800           0
     26533 TIP3     4245     TIP3     OH2      OT      -0.834000       15.9994           0
     26534 TIP3     4245     TIP3     H1       HT       0.417000       1.00800           0
     26535 TIP3     4245     TIP3     H2       HT       0.417000       1.00800           0
     26536 TIP3     4246     TIP3     OH2      OT      -0.834000       15.9994           0
     26537 TIP3     4246     TIP3     H1       HT       0.417000       1.00800           0
     26538 TIP3     4246     TIP3     H2       HT       0.417000       1.00800           0
     26539 TIP3     4247     TIP3     OH2      OT      -0.834000       15.9994           0
     26540 TIP3     4247     TIP3     H1       HT       0.417000       1.00800           0
     26541 TIP3     4247     TIP3     H2       HT       0.417000       1.00800           0
     26542 TIP3     4248     TIP3     OH2      OT      -0.834000       15.9994           0
     26543 TIP3     4248     TIP3     H1       HT       0.417000       1.00800           0
     26544 TIP3     4248     TIP3     H2       HT       0.417000       1.00800           0
     26545 TIP3     4249     TIP3     OH2      OT      -0.834000       15.9994           0
     26546 TIP3     4249     TIP3     H1       HT       0.417000       1.00800           0
     26547 TIP3     4249     TIP3     H2       HT       0.417000       1.00800           0
     26548 TIP3     4250     TIP3     OH2      OT      -0.834000       15.9994           0
     26549 TIP3     4250     TIP3     H1       HT       0.417000       1.00800           0
     26550 TIP3     4250     TIP3     H2       HT       0.417000       1.00800           0
     26551 TIP3     4251     TIP3     OH2      OT      -0.834000       15.9994           0
     26552 TIP3     4251     TIP3     H1       HT       0.417000       1.00800           0
     26553 TIP3     4251     TIP3     H2       HT       0.417000       1.00800           0
     26554 TIP3     4252     TIP3     OH2      OT      -0.834000       15.9994           0
     26555 TIP3     4252     TIP3     H1       HT       0.417000       1.00800           0
     26556 TIP3     4252     TIP3     H2       HT       0.417000       1.00800           0
     26557 TIP3     4253     TIP3     OH2      OT      -0.834000       15.9994           0
     26558 TIP3     4253     TIP3     H1       HT       0.417000       1.00800           0
     26559 TIP3     4253     TIP3     H2       HT       0.417000       1.00800           0
     26560 TIP3     4254     TIP3     OH2      OT      -0.834000       15.9994           0
     26561 TIP3     4254     TIP3     H1       HT       0.417000       1.00800           0
     26562 TIP3     4254     TIP3     H2       HT       0.417000       1.00800           0
     26563 TIP3     4255     TIP3     OH2      OT      -0.834000       15.9994           0
     26564 TIP3     4255     TIP3     H1       HT       0.417000       1.00800           0
     26565 TIP3     4255     TIP3     H2       HT       0.417000       1.00800           0
     26566 TIP3     4256     TIP3     OH2      OT      -0.834000       15.9994           0
     26567 TIP3     4256     TIP3     H1       HT       0.417000       1.00800           0
     26568 TIP3     4256     TIP3     H2       HT       0.417000       1.00800           0
     26569 TIP3     4257     TIP3     OH2      OT      -0.834000       15.9994           0
     26570 TIP3     4257     TIP3     H1       HT       0.417000       1.00800           0
     26571 TIP3     4257     TIP3     H2       HT       0.417000       1.00800           0
     26572 TIP3     4258     TIP3     OH2      OT      -0.834000       15.9994           0
     26573 TIP3     4258     TIP3     H1       HT       0.417000       1.00800           0
     26574 TIP3     4258     TIP3     H2       HT       0.417000       1.00800           0
     26575 TIP3     4259     TIP3     OH2      OT      -0.834000       15.9994           0
     26576 TIP3     4259     TIP3     H1       HT       0.417000       1.00800           0
     26577 TIP3     4259     TIP3     H2       HT       0.417000       1.00800           0
     26578 TIP3     4260     TIP3     OH2      OT      -0.834000       15.9994           0
     26579 TIP3     4260     TIP3     H1       HT       0.417000       1.00800           0
     26580 TIP3     4260     TIP3     H2       HT       0.417000       1.00800           0
     26581 TIP3     4261     TIP3     OH2      OT      -0.834000       15.9994           0
     26582 TIP3     4261     TIP3     H1       HT       0.417000       1.00800           0
     26583 TIP3     4261     TIP3     H2       HT       0.417000       1.00800           0
     26584 TIP3     4262     TIP3     OH2      OT      -0.834000       15.9994           0
     26585 TIP3     4262     TIP3     H1       HT       0.417000       1.00800           0
     26586 TIP3     4262     TIP3     H2       HT       0.417000       1.00800           0
     26587 TIP3     4263     TIP3     OH2      OT      -0.834000       15.9994           0
     26588 TIP3     4263     TIP3     H1       HT       0.417000       1.00800           0
     26589 TIP3     4263     TIP3     H2       HT       0.417000       1.00800           0
     26590 TIP3     4264     TIP3     OH2      OT      -0.834000       15.9994           0
     26591 TIP3     4264     TIP3     H1       HT       0.417000       1.00800           0
     26592 TIP3     4264     TIP3     H2       HT       0.417000       1.00800           0
     26593 TIP3     4265     TIP3     OH2      OT      -0.834000       15.9994           0
     26594 TIP3     4265     TIP3     H1       HT       0.417000       1.00800           0
     26595 TIP3     4265     TIP3     H2       HT       0.417000       1.00800           0
     26596 TIP3     4266     TIP3     OH2      OT      -0.834000       15.9994           0
     26597 TIP3     4266     TIP3     H1       HT       0.417000       1.00800           0
     26598 TIP3     4266     TIP3     H2       HT       0.417000       1.00800           0
     26599 TIP3     4267     TIP3     OH2      OT      -0.834000       15.9994           0
     26600 TIP3     4267     TIP3     H1       HT       0.417000       1.00800           0
     26601 TIP3     4267     TIP3     H2       HT       0.417000       1.00800           0
     26602 TIP3     4268     TIP3     OH2      OT      -0.834000       15.9994           0
     26603 TIP3     4268     TIP3     H1       HT       0.417000       1.00800           0
     26604 TIP3     4268     TIP3     H2       HT       0.417000       1.00800           0
     26605 TIP3     4269     TIP3     OH2      OT      -0.834000       15.9994           0
     26606 TIP3     4269     TIP3     H1       HT       0.417000       1.00800           0
     26607 TIP3     4269     TIP3     H2       HT       0.417000       1.00800           0
     26608 TIP3     4270     TIP3     OH2      OT      -0.834000       15.9994           0
     26609 TIP3     4270     TIP3     H1       HT       0.417000       1.00800           0
     26610 TIP3     4270     TIP3     H2       HT       0.417000       1.00800           0
     26611 TIP3     4271     TIP3     OH2      OT      -0.834000       15.9994           0
     26612 TIP3     4271     TIP3     H1       HT       0.417000       1.00800           0
     26613 TIP3     4271     TIP3     H2       HT       0.417000       1.00800           0
     26614 TIP3     4272     TIP3     OH2      OT      -0.834000       15.9994           0
     26615 TIP3     4272     TIP3     H1       HT       0.417000       1.00800           0
     26616 TIP3     4272     TIP3     H2       HT       0.417000       1.00800           0
     26617 TIP3     4273     TIP3     OH2      OT      -0.834000       15.9994           0
     26618 TIP3     4273     TIP3     H1       HT       0.417000       1.00800           0
     26619 TIP3     4273     TIP3     H2       HT       0.417000       1.00800           0
     26620 TIP3     4274     TIP3     OH2      OT      -0.834000       15.9994           0
     26621 TIP3     4274     TIP3     H1       HT       0.417000       1.00800           0
     26622 TIP3     4274     TIP3     H2       HT       0.417000       1.00800           0
     26623 TIP3     4275     TIP3     OH2      OT      -0.834000       15.9994           0
     26624 TIP3     4275     TIP3     H1       HT       0.417000       1.00800           0
     26625 TIP3     4275     TIP3     H2       HT       0.417000       1.00800           0
     26626 TIP3     4276     TIP3     OH2      OT      -0.834000       15.9994           0
     26627 TIP3     4276     TIP3     H1       HT       0.417000       1.00800           0
     26628 TIP3     4276     TIP3     H2       HT       0.417000       1.00800           0
     26629 TIP3     4277     TIP3     OH2      OT      -0.834000       15.9994           0
     26630 TIP3     4277     TIP3     H1       HT       0.417000       1.00800           0
     26631 TIP3     4277     TIP3     H2       HT       0.417000       1.00800           0
     26632 TIP3     4278     TIP3     OH2      OT      -0.834000       15.9994           0
     26633 TIP3     4278     TIP3     H1       HT       0.417000       1.00800           0
     26634 TIP3     4278     TIP3     H2       HT       0.417000       1.00800           0
     26635 TIP3     4279     TIP3     OH2      OT      -0.834000       15.9994           0
     26636 TIP3     4279     TIP3     H1       HT       0.417000       1.00800           0
     26637 TIP3     4279     TIP3     H2       HT       0.417000       1.00800           0
     26638 TIP3     4280     TIP3     OH2      OT      -0.834000       15.9994           0
     26639 TIP3     4280     TIP3     H1       HT       0.417000       1.00800           0
     26640 TIP3     4280     TIP3     H2       HT       0.417000       1.00800           0
     26641 TIP3     4281     TIP3     OH2      OT      -0.834000       15.9994           0
     26642 TIP3     4281     TIP3     H1       HT       0.417000       1.00800           0
     26643 TIP3     4281     TIP3     H2       HT       0.417000       1.00800           0
     26644 TIP3     4282     TIP3     OH2      OT      -0.834000       15.9994           0
     26645 TIP3     4282     TIP3     H1       HT       0.417000       1.00800           0
     26646 TIP3     4282     TIP3     H2       HT       0.417000       1.00800           0
     26647 TIP3     4283     TIP3     OH2      OT      -0.834000       15.9994           0
     26648 TIP3     4283     TIP3     H1       HT       0.417000       1.00800           0
     26649 TIP3     4283     TIP3     H2       HT       0.417000       1.00800           0
     26650 TIP3     4284     TIP3     OH2      OT      -0.834000       15.9994           0
     26651 TIP3     4284     TIP3     H1       HT       0.417000       1.00800           0
     26652 TIP3     4284     TIP3     H2       HT       0.417000       1.00800           0
     26653 TIP3     4285     TIP3     OH2      OT      -0.834000       15.9994           0
     26654 TIP3     4285     TIP3     H1       HT       0.417000       1.00800           0
     26655 TIP3     4285     TIP3     H2       HT       0.417000       1.00800           0
     26656 TIP3     4286     TIP3     OH2      OT      -0.834000       15.9994           0
     26657 TIP3     4286     TIP3     H1       HT       0.417000       1.00800           0
     26658 TIP3     4286     TIP3     H2       HT       0.417000       1.00800           0
     26659 TIP3     4287     TIP3     OH2      OT      -0.834000       15.9994           0
     26660 TIP3     4287     TIP3     H1       HT       0.417000       1.00800           0
     26661 TIP3     4287     TIP3     H2       HT       0.417000       1.00800           0
     26662 TIP3     4288     TIP3     OH2      OT      -0.834000       15.9994           0
     26663 TIP3     4288     TIP3     H1       HT       0.417000       1.00800           0
     26664 TIP3     4288     TIP3     H2       HT       0.417000       1.00800           0
     26665 TIP3     4289     TIP3     OH2      OT      -0.834000       15.9994           0
     26666 TIP3     4289     TIP3     H1       HT       0.417000       1.00800           0
     26667 TIP3     4289     TIP3     H2       HT       0.417000       1.00800           0
     26668 TIP3     4290     TIP3     OH2      OT      -0.834000       15.9994           0
     26669 TIP3     4290     TIP3     H1       HT       0.417000       1.00800           0
     26670 TIP3     4290     TIP3     H2       HT       0.417000       1.00800           0
     26671 TIP3     4291     TIP3     OH2      OT      -0.834000       15.9994           0
     26672 TIP3     4291     TIP3     H1       HT       0.417000       1.00800           0
     26673 TIP3     4291     TIP3     H2       HT       0.417000       1.00800           0
     26674 TIP3     4292     TIP3     OH2      OT      -0.834000       15.9994           0
     26675 TIP3     4292     TIP3     H1       HT       0.417000       1.00800           0
     26676 TIP3     4292     TIP3     H2       HT       0.417000       1.00800           0
     26677 TIP3     4293     TIP3     OH2      OT      -0.834000       15.9994           0
     26678 TIP3     4293     TIP3     H1       HT       0.417000       1.00800           0
     26679 TIP3     4293     TIP3     H2       HT       0.417000       1.00800           0
     26680 TIP3     4294     TIP3     OH2      OT      -0.834000       15.9994           0
     26681 TIP3     4294     TIP3     H1       HT       0.417000       1.00800           0
     26682 TIP3     4294     TIP3     H2       HT       0.417000       1.00800           0
     26683 TIP3     4295     TIP3     OH2      OT      -0.834000       15.9994           0
     26684 TIP3     4295     TIP3     H1       HT       0.417000       1.00800           0
     26685 TIP3     4295     TIP3     H2       HT       0.417000       1.00800           0
     26686 TIP3     4296     TIP3     OH2      OT      -0.834000       15.9994           0
     26687 TIP3     4296     TIP3     H1       HT       0.417000       1.00800           0
     26688 TIP3     4296     TIP3     H2       HT       0.417000       1.00800           0
     26689 TIP3     4297     TIP3     OH2      OT      -0.834000       15.9994           0
     26690 TIP3     4297     TIP3     H1       HT       0.417000       1.00800           0
     26691 TIP3     4297     TIP3     H2       HT       0.417000       1.00800           0
     26692 TIP3     4298     TIP3     OH2      OT      -0.834000       15.9994           0
     26693 TIP3     4298     TIP3     H1       HT       0.417000       1.00800           0
     26694 TIP3     4298     TIP3     H2       HT       0.417000       1.00800           0
     26695 TIP3     4299     TIP3     OH2      OT      -0.834000       15.9994           0
     26696 TIP3     4299     TIP3     H1       HT       0.417000       1.00800           0
     26697 TIP3     4299     TIP3     H2       HT       0.417000       1.00800           0
     26698 TIP3     4300     TIP3     OH2      OT      -0.834000       15.9994           0
     26699 TIP3     4300     TIP3     H1       HT       0.417000       1.00800           0
     26700 TIP3     4300     TIP3     H2       HT       0.417000       1.00800           0
     26701 TIP3     4301     TIP3     OH2      OT      -0.834000       15.9994           0
     26702 TIP3     4301     TIP3     H1       HT       0.417000       1.00800           0
     26703 TIP3     4301     TIP3     H2       HT       0.417000       1.00800           0
     26704 TIP3     4302     TIP3     OH2      OT      -0.834000       15.9994           0
     26705 TIP3     4302     TIP3     H1       HT       0.417000       1.00800           0
     26706 TIP3     4302     TIP3     H2       HT       0.417000       1.00800           0
     26707 TIP3     4303     TIP3     OH2      OT      -0.834000       15.9994           0
     26708 TIP3     4303     TIP3     H1       HT       0.417000       1.00800           0
     26709 TIP3     4303     TIP3     H2       HT       0.417000       1.00800           0
     26710 TIP3     4304     TIP3     OH2      OT      -0.834000       15.9994           0
     26711 TIP3     4304     TIP3     H1       HT       0.417000       1.00800           0
     26712 TIP3     4304     TIP3     H2       HT       0.417000       1.00800           0
     26713 TIP3     4305     TIP3     OH2      OT      -0.834000       15.9994           0
     26714 TIP3     4305     TIP3     H1       HT       0.417000       1.00800           0
     26715 TIP3     4305     TIP3     H2       HT       0.417000       1.00800           0
     26716 TIP3     4306     TIP3     OH2      OT      -0.834000       15.9994           0
     26717 TIP3     4306     TIP3     H1       HT       0.417000       1.00800           0
     26718 TIP3     4306     TIP3     H2       HT       0.417000       1.00800           0
     26719 TIP3     4307     TIP3     OH2      OT      -0.834000       15.9994           0
     26720 TIP3     4307     TIP3     H1       HT       0.417000       1.00800           0
     26721 TIP3     4307     TIP3     H2       HT       0.417000       1.00800           0
     26722 TIP3     4308     TIP3     OH2      OT      -0.834000       15.9994           0
     26723 TIP3     4308     TIP3     H1       HT       0.417000       1.00800           0
     26724 TIP3     4308     TIP3     H2       HT       0.417000       1.00800           0
     26725 TIP3     4309     TIP3     OH2      OT      -0.834000       15.9994           0
     26726 TIP3     4309     TIP3     H1       HT       0.417000       1.00800           0
     26727 TIP3     4309     TIP3     H2       HT       0.417000       1.00800           0
     26728 TIP3     4310     TIP3     OH2      OT      -0.834000       15.9994           0
     26729 TIP3     4310     TIP3     H1       HT       0.417000       1.00800           0
     26730 TIP3     4310     TIP3     H2       HT       0.417000       1.00800           0
     26731 TIP3     4311     TIP3     OH2      OT      -0.834000       15.9994           0
     26732 TIP3     4311     TIP3     H1       HT       0.417000       1.00800           0
     26733 TIP3     4311     TIP3     H2       HT       0.417000       1.00800           0
     26734 TIP3     4312     TIP3     OH2      OT      -0.834000       15.9994           0
     26735 TIP3     4312     TIP3     H1       HT       0.417000       1.00800           0
     26736 TIP3     4312     TIP3     H2       HT       0.417000       1.00800           0
     26737 TIP3     4313     TIP3     OH2      OT      -0.834000       15.9994           0
     26738 TIP3     4313     TIP3     H1       HT       0.417000       1.00800           0
     26739 TIP3     4313     TIP3     H2       HT       0.417000       1.00800           0
     26740 TIP3     4314     TIP3     OH2      OT      -0.834000       15.9994           0
     26741 TIP3     4314     TIP3     H1       HT       0.417000       1.00800           0
     26742 TIP3     4314     TIP3     H2       HT       0.417000       1.00800           0
     26743 TIP3     4315     TIP3     OH2      OT      -0.834000       15.9994           0
     26744 TIP3     4315     TIP3     H1       HT       0.417000       1.00800           0
     26745 TIP3     4315     TIP3     H2       HT       0.417000       1.00800           0
     26746 TIP3     4316     TIP3     OH2      OT      -0.834000       15.9994           0
     26747 TIP3     4316     TIP3     H1       HT       0.417000       1.00800           0
     26748 TIP3     4316     TIP3     H2       HT       0.417000       1.00800           0
     26749 TIP3     4317     TIP3     OH2      OT      -0.834000       15.9994           0
     26750 TIP3     4317     TIP3     H1       HT       0.417000       1.00800           0
     26751 TIP3     4317     TIP3     H2       HT       0.417000       1.00800           0
     26752 TIP3     4318     TIP3     OH2      OT      -0.834000       15.9994           0
     26753 TIP3     4318     TIP3     H1       HT       0.417000       1.00800           0
     26754 TIP3     4318     TIP3     H2       HT       0.417000       1.00800           0
     26755 TIP3     4319     TIP3     OH2      OT      -0.834000       15.9994           0
     26756 TIP3     4319     TIP3     H1       HT       0.417000       1.00800           0
     26757 TIP3     4319     TIP3     H2       HT       0.417000       1.00800           0
     26758 TIP3     4320     TIP3     OH2      OT      -0.834000       15.9994           0
     26759 TIP3     4320     TIP3     H1       HT       0.417000       1.00800           0
     26760 TIP3     4320     TIP3     H2       HT       0.417000       1.00800           0
     26761 TIP3     4321     TIP3     OH2      OT      -0.834000       15.9994           0
     26762 TIP3     4321     TIP3     H1       HT       0.417000       1.00800           0
     26763 TIP3     4321     TIP3     H2       HT       0.417000       1.00800           0
     26764 TIP3     4322     TIP3     OH2      OT      -0.834000       15.9994           0
     26765 TIP3     4322     TIP3     H1       HT       0.417000       1.00800           0
     26766 TIP3     4322     TIP3     H2       HT       0.417000       1.00800           0
     26767 TIP3     4323     TIP3     OH2      OT      -0.834000       15.9994           0
     26768 TIP3     4323     TIP3     H1       HT       0.417000       1.00800           0
     26769 TIP3     4323     TIP3     H2       HT       0.417000       1.00800           0
     26770 TIP3     4324     TIP3     OH2      OT      -0.834000       15.9994           0
     26771 TIP3     4324     TIP3     H1       HT       0.417000       1.00800           0
     26772 TIP3     4324     TIP3     H2       HT       0.417000       1.00800           0
     26773 TIP3     4325     TIP3     OH2      OT      -0.834000       15.9994           0
     26774 TIP3     4325     TIP3     H1       HT       0.417000       1.00800           0
     26775 TIP3     4325     TIP3     H2       HT       0.417000       1.00800           0
     26776 TIP3     4326     TIP3     OH2      OT      -0.834000       15.9994           0
     26777 TIP3     4326     TIP3     H1       HT       0.417000       1.00800           0
     26778 TIP3     4326     TIP3     H2       HT       0.417000       1.00800           0
     26779 TIP3     4327     TIP3     OH2      OT      -0.834000       15.9994           0
     26780 TIP3     4327     TIP3     H1       HT       0.417000       1.00800           0
     26781 TIP3     4327     TIP3     H2       HT       0.417000       1.00800           0
     26782 TIP3     4328     TIP3     OH2      OT      -0.834000       15.9994           0
     26783 TIP3     4328     TIP3     H1       HT       0.417000       1.00800           0
     26784 TIP3     4328     TIP3     H2       HT       0.417000       1.00800           0
     26785 TIP3     4329     TIP3     OH2      OT      -0.834000       15.9994           0
     26786 TIP3     4329     TIP3     H1       HT       0.417000       1.00800           0
     26787 TIP3     4329     TIP3     H2       HT       0.417000       1.00800           0
     26788 TIP3     4330     TIP3     OH2      OT      -0.834000       15.9994           0
     26789 TIP3     4330     TIP3     H1       HT       0.417000       1.00800           0
     26790 TIP3     4330     TIP3     H2       HT       0.417000       1.00800           0
     26791 TIP3     4331     TIP3     OH2      OT      -0.834000       15.9994           0
     26792 TIP3     4331     TIP3     H1       HT       0.417000       1.00800           0
     26793 TIP3     4331     TIP3     H2       HT       0.417000       1.00800           0
     26794 TIP3     4332     TIP3     OH2      OT      -0.834000       15.9994           0
     26795 TIP3     4332     TIP3     H1       HT       0.417000       1.00800           0
     26796 TIP3     4332     TIP3     H2       HT       0.417000       1.00800           0
     26797 TIP3     4333     TIP3     OH2      OT      -0.834000       15.9994           0
     26798 TIP3     4333     TIP3     H1       HT       0.417000       1.00800           0
     26799 TIP3     4333     TIP3     H2       HT       0.417000       1.00800           0
     26800 TIP3     4334     TIP3     OH2      OT      -0.834000       15.9994           0
     26801 TIP3     4334     TIP3     H1       HT       0.417000       1.00800           0
     26802 TIP3     4334     TIP3     H2       HT       0.417000       1.00800           0
     26803 TIP3     4335     TIP3     OH2      OT      -0.834000       15.9994           0
     26804 TIP3     4335     TIP3     H1       HT       0.417000       1.00800           0
     26805 TIP3     4335     TIP3     H2       HT       0.417000       1.00800           0
     26806 TIP3     4336     TIP3     OH2      OT      -0.834000       15.9994           0
     26807 TIP3     4336     TIP3     H1       HT       0.417000       1.00800           0
     26808 TIP3     4336     TIP3     H2       HT       0.417000       1.00800           0
     26809 TIP3     4337     TIP3     OH2      OT      -0.834000       15.9994           0
     26810 TIP3     4337     TIP3     H1       HT       0.417000       1.00800           0
     26811 TIP3     4337     TIP3     H2       HT       0.417000       1.00800           0
     26812 TIP3     4338     TIP3     OH2      OT      -0.834000       15.9994           0
     26813 TIP3     4338     TIP3     H1       HT       0.417000       1.00800           0
     26814 TIP3     4338     TIP3     H2       HT       0.417000       1.00800           0
     26815 TIP3     4339     TIP3     OH2      OT      -0.834000       15.9994           0
     26816 TIP3     4339     TIP3     H1       HT       0.417000       1.00800           0
     26817 TIP3     4339     TIP3     H2       HT       0.417000       1.00800           0
     26818 TIP3     4340     TIP3     OH2      OT      -0.834000       15.9994           0
     26819 TIP3     4340     TIP3     H1       HT       0.417000       1.00800           0
     26820 TIP3     4340     TIP3     H2       HT       0.417000       1.00800           0
     26821 TIP3     4341     TIP3     OH2      OT      -0.834000       15.9994           0
     26822 TIP3     4341     TIP3     H1       HT       0.417000       1.00800           0
     26823 TIP3     4341     TIP3     H2       HT       0.417000       1.00800           0
     26824 TIP3     4342     TIP3     OH2      OT      -0.834000       15.9994           0
     26825 TIP3     4342     TIP3     H1       HT       0.417000       1.00800           0
     26826 TIP3     4342     TIP3     H2       HT       0.417000       1.00800           0
     26827 TIP3     4343     TIP3     OH2      OT      -0.834000       15.9994           0
     26828 TIP3     4343     TIP3     H1       HT       0.417000       1.00800           0
     26829 TIP3     4343     TIP3     H2       HT       0.417000       1.00800           0
     26830 TIP3     4344     TIP3     OH2      OT      -0.834000       15.9994           0
     26831 TIP3     4344     TIP3     H1       HT       0.417000       1.00800           0
     26832 TIP3     4344     TIP3     H2       HT       0.417000       1.00800           0
     26833 TIP3     4345     TIP3     OH2      OT      -0.834000       15.9994           0
     26834 TIP3     4345     TIP3     H1       HT       0.417000       1.00800           0
     26835 TIP3     4345     TIP3     H2       HT       0.417000       1.00800           0
     26836 TIP3     4346     TIP3     OH2      OT      -0.834000       15.9994           0
     26837 TIP3     4346     TIP3     H1       HT       0.417000       1.00800           0
     26838 TIP3     4346     TIP3     H2       HT       0.417000       1.00800           0
     26839 TIP3     4347     TIP3     OH2      OT      -0.834000       15.9994           0
     26840 TIP3     4347     TIP3     H1       HT       0.417000       1.00800           0
     26841 TIP3     4347     TIP3     H2       HT       0.417000       1.00800           0
     26842 TIP3     4348     TIP3     OH2      OT      -0.834000       15.9994           0
     26843 TIP3     4348     TIP3     H1       HT       0.417000       1.00800           0
     26844 TIP3     4348     TIP3     H2       HT       0.417000       1.00800           0
     26845 TIP3     4349     TIP3     OH2      OT      -0.834000       15.9994           0
     26846 TIP3     4349     TIP3     H1       HT       0.417000       1.00800           0
     26847 TIP3     4349     TIP3     H2       HT       0.417000       1.00800           0
     26848 TIP3     4350     TIP3     OH2      OT      -0.834000       15.9994           0
     26849 TIP3     4350     TIP3     H1       HT       0.417000       1.00800           0
     26850 TIP3     4350     TIP3     H2       HT       0.417000       1.00800           0
     26851 TIP3     4351     TIP3     OH2      OT      -0.834000       15.9994           0
     26852 TIP3     4351     TIP3     H1       HT       0.417000       1.00800           0
     26853 TIP3     4351     TIP3     H2       HT       0.417000       1.00800           0
     26854 TIP3     4352     TIP3     OH2      OT      -0.834000       15.9994           0
     26855 TIP3     4352     TIP3     H1       HT       0.417000       1.00800           0
     26856 TIP3     4352     TIP3     H2       HT       0.417000       1.00800           0
     26857 TIP3     4353     TIP3     OH2      OT      -0.834000       15.9994           0
     26858 TIP3     4353     TIP3     H1       HT       0.417000       1.00800           0
     26859 TIP3     4353     TIP3     H2       HT       0.417000       1.00800           0
     26860 TIP3     4354     TIP3     OH2      OT      -0.834000       15.9994           0
     26861 TIP3     4354     TIP3     H1       HT       0.417000       1.00800           0
     26862 TIP3     4354     TIP3     H2       HT       0.417000       1.00800           0
     26863 TIP3     4355     TIP3     OH2      OT      -0.834000       15.9994           0
     26864 TIP3     4355     TIP3     H1       HT       0.417000       1.00800           0
     26865 TIP3     4355     TIP3     H2       HT       0.417000       1.00800           0
     26866 TIP3     4356     TIP3     OH2      OT      -0.834000       15.9994           0
     26867 TIP3     4356     TIP3     H1       HT       0.417000       1.00800           0
     26868 TIP3     4356     TIP3     H2       HT       0.417000       1.00800           0
     26869 TIP3     4357     TIP3     OH2      OT      -0.834000       15.9994           0
     26870 TIP3     4357     TIP3     H1       HT       0.417000       1.00800           0
     26871 TIP3     4357     TIP3     H2       HT       0.417000       1.00800           0
     26872 TIP3     4358     TIP3     OH2      OT      -0.834000       15.9994           0
     26873 TIP3     4358     TIP3     H1       HT       0.417000       1.00800           0
     26874 TIP3     4358     TIP3     H2       HT       0.417000       1.00800           0
     26875 TIP3     4359     TIP3     OH2      OT      -0.834000       15.9994           0
     26876 TIP3     4359     TIP3     H1       HT       0.417000       1.00800           0
     26877 TIP3     4359     TIP3     H2       HT       0.417000       1.00800           0
     26878 TIP3     4360     TIP3     OH2      OT      -0.834000       15.9994           0
     26879 TIP3     4360     TIP3     H1       HT       0.417000       1.00800           0
     26880 TIP3     4360     TIP3     H2       HT       0.417000       1.00800           0
     26881 TIP3     4361     TIP3     OH2      OT      -0.834000       15.9994           0
     26882 TIP3     4361     TIP3     H1       HT       0.417000       1.00800           0
     26883 TIP3     4361     TIP3     H2       HT       0.417000       1.00800           0
     26884 TIP3     4362     TIP3     OH2      OT      -0.834000       15.9994           0
     26885 TIP3     4362     TIP3     H1       HT       0.417000       1.00800           0
     26886 TIP3     4362     TIP3     H2       HT       0.417000       1.00800           0
     26887 TIP3     4363     TIP3     OH2      OT      -0.834000       15.9994           0
     26888 TIP3     4363     TIP3     H1       HT       0.417000       1.00800           0
     26889 TIP3     4363     TIP3     H2       HT       0.417000       1.00800           0
     26890 TIP3     4364     TIP3     OH2      OT      -0.834000       15.9994           0
     26891 TIP3     4364     TIP3     H1       HT       0.417000       1.00800           0
     26892 TIP3     4364     TIP3     H2       HT       0.417000       1.00800           0
     26893 TIP3     4365     TIP3     OH2      OT      -0.834000       15.9994           0
     26894 TIP3     4365     TIP3     H1       HT       0.417000       1.00800           0
     26895 TIP3     4365     TIP3     H2       HT       0.417000       1.00800           0
     26896 TIP3     4366     TIP3     OH2      OT      -0.834000       15.9994           0
     26897 TIP3     4366     TIP3     H1       HT       0.417000       1.00800           0
     26898 TIP3     4366     TIP3     H2       HT       0.417000       1.00800           0
     26899 TIP3     4367     TIP3     OH2      OT      -0.834000       15.9994           0
     26900 TIP3     4367     TIP3     H1       HT       0.417000       1.00800           0
     26901 TIP3     4367     TIP3     H2       HT       0.417000       1.00800           0
     26902 TIP3     4368     TIP3     OH2      OT      -0.834000       15.9994           0
     26903 TIP3     4368     TIP3     H1       HT       0.417000       1.00800           0
     26904 TIP3     4368     TIP3     H2       HT       0.417000       1.00800           0
     26905 TIP3     4369     TIP3     OH2      OT      -0.834000       15.9994           0
     26906 TIP3     4369     TIP3     H1       HT       0.417000       1.00800           0
     26907 TIP3     4369     TIP3     H2       HT       0.417000       1.00800           0
     26908 TIP3     4370     TIP3     OH2      OT      -0.834000       15.9994           0
     26909 TIP3     4370     TIP3     H1       HT       0.417000       1.00800           0
     26910 TIP3     4370     TIP3     H2       HT       0.417000       1.00800           0
     26911 TIP3     4371     TIP3     OH2      OT      -0.834000       15.9994           0
     26912 TIP3     4371     TIP3     H1       HT       0.417000       1.00800           0
     26913 TIP3     4371     TIP3     H2       HT       0.417000       1.00800           0
     26914 TIP3     4372     TIP3     OH2      OT      -0.834000       15.9994           0
     26915 TIP3     4372     TIP3     H1       HT       0.417000       1.00800           0
     26916 TIP3     4372     TIP3     H2       HT       0.417000       1.00800           0
     26917 TIP3     4373     TIP3     OH2      OT      -0.834000       15.9994           0
     26918 TIP3     4373     TIP3     H1       HT       0.417000       1.00800           0
     26919 TIP3     4373     TIP3     H2       HT       0.417000       1.00800           0
     26920 TIP3     4374     TIP3     OH2      OT      -0.834000       15.9994           0
     26921 TIP3     4374     TIP3     H1       HT       0.417000       1.00800           0
     26922 TIP3     4374     TIP3     H2       HT       0.417000       1.00800           0
     26923 TIP3     4375     TIP3     OH2      OT      -0.834000       15.9994           0
     26924 TIP3     4375     TIP3     H1       HT       0.417000       1.00800           0
     26925 TIP3     4375     TIP3     H2       HT       0.417000       1.00800           0
     26926 TIP3     4376     TIP3     OH2      OT      -0.834000       15.9994           0
     26927 TIP3     4376     TIP3     H1       HT       0.417000       1.00800           0
     26928 TIP3     4376     TIP3     H2       HT       0.417000       1.00800           0
     26929 TIP3     4377     TIP3     OH2      OT      -0.834000       15.9994           0
     26930 TIP3     4377     TIP3     H1       HT       0.417000       1.00800           0
     26931 TIP3     4377     TIP3     H2       HT       0.417000       1.00800           0
     26932 TIP3     4378     TIP3     OH2      OT      -0.834000       15.9994           0
     26933 TIP3     4378     TIP3     H1       HT       0.417000       1.00800           0
     26934 TIP3     4378     TIP3     H2       HT       0.417000       1.00800           0
     26935 TIP3     4379     TIP3     OH2      OT      -0.834000       15.9994           0
     26936 TIP3     4379     TIP3     H1       HT       0.417000       1.00800           0
     26937 TIP3     4379     TIP3     H2       HT       0.417000       1.00800           0
     26938 TIP3     4380     TIP3     OH2      OT      -0.834000       15.9994           0
     26939 TIP3     4380     TIP3     H1       HT       0.417000       1.00800           0
     26940 TIP3     4380     TIP3     H2       HT       0.417000       1.00800           0
     26941 TIP3     4381     TIP3     OH2      OT      -0.834000       15.9994           0
     26942 TIP3     4381     TIP3     H1       HT       0.417000       1.00800           0
     26943 TIP3     4381     TIP3     H2       HT       0.417000       1.00800           0
     26944 TIP3     4382     TIP3     OH2      OT      -0.834000       15.9994           0
     26945 TIP3     4382     TIP3     H1       HT       0.417000       1.00800           0
     26946 TIP3     4382     TIP3     H2       HT       0.417000       1.00800           0
     26947 TIP3     4383     TIP3     OH2      OT      -0.834000       15.9994           0
     26948 TIP3     4383     TIP3     H1       HT       0.417000       1.00800           0
     26949 TIP3     4383     TIP3     H2       HT       0.417000       1.00800           0
     26950 TIP3     4384     TIP3     OH2      OT      -0.834000       15.9994           0
     26951 TIP3     4384     TIP3     H1       HT       0.417000       1.00800           0
     26952 TIP3     4384     TIP3     H2       HT       0.417000       1.00800           0
     26953 TIP3     4385     TIP3     OH2      OT      -0.834000       15.9994           0
     26954 TIP3     4385     TIP3     H1       HT       0.417000       1.00800           0
     26955 TIP3     4385     TIP3     H2       HT       0.417000       1.00800           0
     26956 TIP3     4386     TIP3     OH2      OT      -0.834000       15.9994           0
     26957 TIP3     4386     TIP3     H1       HT       0.417000       1.00800           0
     26958 TIP3     4386     TIP3     H2       HT       0.417000       1.00800           0
     26959 TIP3     4387     TIP3     OH2      OT      -0.834000       15.9994           0
     26960 TIP3     4387     TIP3     H1       HT       0.417000       1.00800           0
     26961 TIP3     4387     TIP3     H2       HT       0.417000       1.00800           0
     26962 TIP3     4388     TIP3     OH2      OT      -0.834000       15.9994           0
     26963 TIP3     4388     TIP3     H1       HT       0.417000       1.00800           0
     26964 TIP3     4388     TIP3     H2       HT       0.417000       1.00800           0
     26965 TIP3     4389     TIP3     OH2      OT      -0.834000       15.9994           0
     26966 TIP3     4389     TIP3     H1       HT       0.417000       1.00800           0
     26967 TIP3     4389     TIP3     H2       HT       0.417000       1.00800           0
     26968 TIP3     4390     TIP3     OH2      OT      -0.834000       15.9994           0
     26969 TIP3     4390     TIP3     H1       HT       0.417000       1.00800           0
     26970 TIP3     4390     TIP3     H2       HT       0.417000       1.00800           0
     26971 TIP3     4391     TIP3     OH2      OT      -0.834000       15.9994           0
     26972 TIP3     4391     TIP3     H1       HT       0.417000       1.00800           0
     26973 TIP3     4391     TIP3     H2       HT       0.417000       1.00800           0
     26974 TIP3     4392     TIP3     OH2      OT      -0.834000       15.9994           0
     26975 TIP3     4392     TIP3     H1       HT       0.417000       1.00800           0
     26976 TIP3     4392     TIP3     H2       HT       0.417000       1.00800           0
     26977 TIP3     4393     TIP3     OH2      OT      -0.834000       15.9994           0
     26978 TIP3     4393     TIP3     H1       HT       0.417000       1.00800           0
     26979 TIP3     4393     TIP3     H2       HT       0.417000       1.00800           0
     26980 TIP3     4394     TIP3     OH2      OT      -0.834000       15.9994           0
     26981 TIP3     4394     TIP3     H1       HT       0.417000       1.00800           0
     26982 TIP3     4394     TIP3     H2       HT       0.417000       1.00800           0
     26983 TIP3     4395     TIP3     OH2      OT      -0.834000       15.9994           0
     26984 TIP3     4395     TIP3     H1       HT       0.417000       1.00800           0
     26985 TIP3     4395     TIP3     H2       HT       0.417000       1.00800           0
     26986 TIP3     4396     TIP3     OH2      OT      -0.834000       15.9994           0
     26987 TIP3     4396     TIP3     H1       HT       0.417000       1.00800           0
     26988 TIP3     4396     TIP3     H2       HT       0.417000       1.00800           0
     26989 TIP3     4397     TIP3     OH2      OT      -0.834000       15.9994           0
     26990 TIP3     4397     TIP3     H1       HT       0.417000       1.00800           0
     26991 TIP3     4397     TIP3     H2       HT       0.417000       1.00800           0
     26992 TIP3     4398     TIP3     OH2      OT      -0.834000       15.9994           0
     26993 TIP3     4398     TIP3     H1       HT       0.417000       1.00800           0
     26994 TIP3     4398     TIP3     H2       HT       0.417000       1.00800           0
     26995 TIP3     4399     TIP3     OH2      OT      -0.834000       15.9994           0
     26996 TIP3     4399     TIP3     H1       HT       0.417000       1.00800           0
     26997 TIP3     4399     TIP3     H2       HT       0.417000       1.00800           0
     26998 TIP3     4400     TIP3     OH2      OT      -0.834000       15.9994           0
     26999 TIP3     4400     TIP3     H1       HT       0.417000       1.00800           0
     27000 TIP3     4400     TIP3     H2       HT       0.417000       1.00800           0
     27001 TIP3     4401     TIP3     OH2      OT      -0.834000       15.9994           0
     27002 TIP3     4401     TIP3     H1       HT       0.417000       1.00800           0
     27003 TIP3     4401     TIP3     H2       HT       0.417000       1.00800           0
     27004 TIP3     4402     TIP3     OH2      OT      -0.834000       15.9994           0
     27005 TIP3     4402     TIP3     H1       HT       0.417000       1.00800           0
     27006 TIP3     4402     TIP3     H2       HT       0.417000       1.00800           0
     27007 TIP3     4403     TIP3     OH2      OT      -0.834000       15.9994           0
     27008 TIP3     4403     TIP3     H1       HT       0.417000       1.00800           0
     27009 TIP3     4403     TIP3     H2       HT       0.417000       1.00800           0
     27010 TIP3     4404     TIP3     OH2      OT      -0.834000       15.9994           0
     27011 TIP3     4404     TIP3     H1       HT       0.417000       1.00800           0
     27012 TIP3     4404     TIP3     H2       HT       0.417000       1.00800           0
     27013 TIP3     4405     TIP3     OH2      OT      -0.834000       15.9994           0
     27014 TIP3     4405     TIP3     H1       HT       0.417000       1.00800           0
     27015 TIP3     4405     TIP3     H2       HT       0.417000       1.00800           0
     27016 TIP3     4406     TIP3     OH2      OT      -0.834000       15.9994           0
     27017 TIP3     4406     TIP3     H1       HT       0.417000       1.00800           0
     27018 TIP3     4406     TIP3     H2       HT       0.417000       1.00800           0
     27019 TIP3     4407     TIP3     OH2      OT      -0.834000       15.9994           0
     27020 TIP3     4407     TIP3     H1       HT       0.417000       1.00800           0
     27021 TIP3     4407     TIP3     H2       HT       0.417000       1.00800           0
     27022 TIP3     4408     TIP3     OH2      OT      -0.834000       15.9994           0
     27023 TIP3     4408     TIP3     H1       HT       0.417000       1.00800           0
     27024 TIP3     4408     TIP3     H2       HT       0.417000       1.00800           0
     27025 TIP3     4409     TIP3     OH2      OT      -0.834000       15.9994           0
     27026 TIP3     4409     TIP3     H1       HT       0.417000       1.00800           0
     27027 TIP3     4409     TIP3     H2       HT       0.417000       1.00800           0
     27028 TIP3     4410     TIP3     OH2      OT      -0.834000       15.9994           0
     27029 TIP3     4410     TIP3     H1       HT       0.417000       1.00800           0
     27030 TIP3     4410     TIP3     H2       HT       0.417000       1.00800           0
     27031 TIP3     4411     TIP3     OH2      OT      -0.834000       15.9994           0
     27032 TIP3     4411     TIP3     H1       HT       0.417000       1.00800           0
     27033 TIP3     4411     TIP3     H2       HT       0.417000       1.00800           0
     27034 TIP3     4412     TIP3     OH2      OT      -0.834000       15.9994           0
     27035 TIP3     4412     TIP3     H1       HT       0.417000       1.00800           0
     27036 TIP3     4412     TIP3     H2       HT       0.417000       1.00800           0
     27037 TIP3     4413     TIP3     OH2      OT      -0.834000       15.9994           0
     27038 TIP3     4413     TIP3     H1       HT       0.417000       1.00800           0
     27039 TIP3     4413     TIP3     H2       HT       0.417000       1.00800           0
     27040 TIP3     4414     TIP3     OH2      OT      -0.834000       15.9994           0
     27041 TIP3     4414     TIP3     H1       HT       0.417000       1.00800           0
     27042 TIP3     4414     TIP3     H2       HT       0.417000       1.00800           0
     27043 TIP3     4415     TIP3     OH2      OT      -0.834000       15.9994           0
     27044 TIP3     4415     TIP3     H1       HT       0.417000       1.00800           0
     27045 TIP3     4415     TIP3     H2       HT       0.417000       1.00800           0
     27046 TIP3     4416     TIP3     OH2      OT      -0.834000       15.9994           0
     27047 TIP3     4416     TIP3     H1       HT       0.417000       1.00800           0
     27048 TIP3     4416     TIP3     H2       HT       0.417000       1.00800           0
     27049 TIP3     4417     TIP3     OH2      OT      -0.834000       15.9994           0
     27050 TIP3     4417     TIP3     H1       HT       0.417000       1.00800           0
     27051 TIP3     4417     TIP3     H2       HT       0.417000       1.00800           0
     27052 TIP3     4418     TIP3     OH2      OT      -0.834000       15.9994           0
     27053 TIP3     4418     TIP3     H1       HT       0.417000       1.00800           0
     27054 TIP3     4418     TIP3     H2       HT       0.417000       1.00800           0
     27055 TIP3     4419     TIP3     OH2      OT      -0.834000       15.9994           0
     27056 TIP3     4419     TIP3     H1       HT       0.417000       1.00800           0
     27057 TIP3     4419     TIP3     H2       HT       0.417000       1.00800           0
     27058 TIP3     4420     TIP3     OH2      OT      -0.834000       15.9994           0
     27059 TIP3     4420     TIP3     H1       HT       0.417000       1.00800           0
     27060 TIP3     4420     TIP3     H2       HT       0.417000       1.00800           0
     27061 TIP3     4421     TIP3     OH2      OT      -0.834000       15.9994           0
     27062 TIP3     4421     TIP3     H1       HT       0.417000       1.00800           0
     27063 TIP3     4421     TIP3     H2       HT       0.417000       1.00800           0
     27064 TIP3     4422     TIP3     OH2      OT      -0.834000       15.9994           0
     27065 TIP3     4422     TIP3     H1       HT       0.417000       1.00800           0
     27066 TIP3     4422     TIP3     H2       HT       0.417000       1.00800           0
     27067 TIP3     4423     TIP3     OH2      OT      -0.834000       15.9994           0
     27068 TIP3     4423     TIP3     H1       HT       0.417000       1.00800           0
     27069 TIP3     4423     TIP3     H2       HT       0.417000       1.00800           0
     27070 TIP3     4424     TIP3     OH2      OT      -0.834000       15.9994           0
     27071 TIP3     4424     TIP3     H1       HT       0.417000       1.00800           0
     27072 TIP3     4424     TIP3     H2       HT       0.417000       1.00800           0
     27073 TIP3     4425     TIP3     OH2      OT      -0.834000       15.9994           0
     27074 TIP3     4425     TIP3     H1       HT       0.417000       1.00800           0
     27075 TIP3     4425     TIP3     H2       HT       0.417000       1.00800           0
     27076 TIP3     4426     TIP3     OH2      OT      -0.834000       15.9994           0
     27077 TIP3     4426     TIP3     H1       HT       0.417000       1.00800           0
     27078 TIP3     4426     TIP3     H2       HT       0.417000       1.00800           0
     27079 TIP3     4427     TIP3     OH2      OT      -0.834000       15.9994           0
     27080 TIP3     4427     TIP3     H1       HT       0.417000       1.00800           0
     27081 TIP3     4427     TIP3     H2       HT       0.417000       1.00800           0
     27082 TIP3     4428     TIP3     OH2      OT      -0.834000       15.9994           0
     27083 TIP3     4428     TIP3     H1       HT       0.417000       1.00800           0
     27084 TIP3     4428     TIP3     H2       HT       0.417000       1.00800           0
     27085 TIP3     4429     TIP3     OH2      OT      -0.834000       15.9994           0
     27086 TIP3     4429     TIP3     H1       HT       0.417000       1.00800           0
     27087 TIP3     4429     TIP3     H2       HT       0.417000       1.00800           0
     27088 TIP3     4430     TIP3     OH2      OT      -0.834000       15.9994           0
     27089 TIP3     4430     TIP3     H1       HT       0.417000       1.00800           0
     27090 TIP3     4430     TIP3     H2       HT       0.417000       1.00800           0
     27091 TIP3     4431     TIP3     OH2      OT      -0.834000       15.9994           0
     27092 TIP3     4431     TIP3     H1       HT       0.417000       1.00800           0
     27093 TIP3     4431     TIP3     H2       HT       0.417000       1.00800           0
     27094 TIP3     4432     TIP3     OH2      OT      -0.834000       15.9994           0
     27095 TIP3     4432     TIP3     H1       HT       0.417000       1.00800           0
     27096 TIP3     4432     TIP3     H2       HT       0.417000       1.00800           0
     27097 TIP3     4433     TIP3     OH2      OT      -0.834000       15.9994           0
     27098 TIP3     4433     TIP3     H1       HT       0.417000       1.00800           0
     27099 TIP3     4433     TIP3     H2       HT       0.417000       1.00800           0
     27100 TIP3     4434     TIP3     OH2      OT      -0.834000       15.9994           0
     27101 TIP3     4434     TIP3     H1       HT       0.417000       1.00800           0
     27102 TIP3     4434     TIP3     H2       HT       0.417000       1.00800           0
     27103 TIP3     4435     TIP3     OH2      OT      -0.834000       15.9994           0
     27104 TIP3     4435     TIP3     H1       HT       0.417000       1.00800           0
     27105 TIP3     4435     TIP3     H2       HT       0.417000       1.00800           0
     27106 TIP3     4436     TIP3     OH2      OT      -0.834000       15.9994           0
     27107 TIP3     4436     TIP3     H1       HT       0.417000       1.00800           0
     27108 TIP3     4436     TIP3     H2       HT       0.417000       1.00800           0
     27109 TIP3     4437     TIP3     OH2      OT      -0.834000       15.9994           0
     27110 TIP3     4437     TIP3     H1       HT       0.417000       1.00800           0
     27111 TIP3     4437     TIP3     H2       HT       0.417000       1.00800           0
     27112 TIP3     4438     TIP3     OH2      OT      -0.834000       15.9994           0
     27113 TIP3     4438     TIP3     H1       HT       0.417000       1.00800           0
     27114 TIP3     4438     TIP3     H2       HT       0.417000       1.00800           0
     27115 TIP3     4439     TIP3     OH2      OT      -0.834000       15.9994           0
     27116 TIP3     4439     TIP3     H1       HT       0.417000       1.00800           0
     27117 TIP3     4439     TIP3     H2       HT       0.417000       1.00800           0
     27118 TIP3     4440     TIP3     OH2      OT      -0.834000       15.9994           0
     27119 TIP3     4440     TIP3     H1       HT       0.417000       1.00800           0
     27120 TIP3     4440     TIP3     H2       HT       0.417000       1.00800           0
     27121 TIP3     4441     TIP3     OH2      OT      -0.834000       15.9994           0
     27122 TIP3     4441     TIP3     H1       HT       0.417000       1.00800           0
     27123 TIP3     4441     TIP3     H2       HT       0.417000       1.00800           0
     27124 TIP3     4442     TIP3     OH2      OT      -0.834000       15.9994           0
     27125 TIP3     4442     TIP3     H1       HT       0.417000       1.00800           0
     27126 TIP3     4442     TIP3     H2       HT       0.417000       1.00800           0
     27127 TIP3     4443     TIP3     OH2      OT      -0.834000       15.9994           0
     27128 TIP3     4443     TIP3     H1       HT       0.417000       1.00800           0
     27129 TIP3     4443     TIP3     H2       HT       0.417000       1.00800           0
     27130 TIP3     4444     TIP3     OH2      OT      -0.834000       15.9994           0
     27131 TIP3     4444     TIP3     H1       HT       0.417000       1.00800           0
     27132 TIP3     4444     TIP3     H2       HT       0.417000       1.00800           0
     27133 TIP3     4445     TIP3     OH2      OT      -0.834000       15.9994           0
     27134 TIP3     4445     TIP3     H1       HT       0.417000       1.00800           0
     27135 TIP3     4445     TIP3     H2       HT       0.417000       1.00800           0
     27136 TIP3     4446     TIP3     OH2      OT      -0.834000       15.9994           0
     27137 TIP3     4446     TIP3     H1       HT       0.417000       1.00800           0
     27138 TIP3     4446     TIP3     H2       HT       0.417000       1.00800           0
     27139 TIP3     4447     TIP3     OH2      OT      -0.834000       15.9994           0
     27140 TIP3     4447     TIP3     H1       HT       0.417000       1.00800           0
     27141 TIP3     4447     TIP3     H2       HT       0.417000       1.00800           0
     27142 TIP3     4448     TIP3     OH2      OT      -0.834000       15.9994           0
     27143 TIP3     4448     TIP3     H1       HT       0.417000       1.00800           0
     27144 TIP3     4448     TIP3     H2       HT       0.417000       1.00800           0
     27145 TIP3     4449     TIP3     OH2      OT      -0.834000       15.9994           0
     27146 TIP3     4449     TIP3     H1       HT       0.417000       1.00800           0
     27147 TIP3     4449     TIP3     H2       HT       0.417000       1.00800           0
     27148 TIP3     4450     TIP3     OH2      OT      -0.834000       15.9994           0
     27149 TIP3     4450     TIP3     H1       HT       0.417000       1.00800           0
     27150 TIP3     4450     TIP3     H2       HT       0.417000       1.00800           0
     27151 TIP3     4451     TIP3     OH2      OT      -0.834000       15.9994           0
     27152 TIP3     4451     TIP3     H1       HT       0.417000       1.00800           0
     27153 TIP3     4451     TIP3     H2       HT       0.417000       1.00800           0
     27154 TIP3     4452     TIP3     OH2      OT      -0.834000       15.9994           0
     27155 TIP3     4452     TIP3     H1       HT       0.417000       1.00800           0
     27156 TIP3     4452     TIP3     H2       HT       0.417000       1.00800           0
     27157 TIP3     4453     TIP3     OH2      OT      -0.834000       15.9994           0
     27158 TIP3     4453     TIP3     H1       HT       0.417000       1.00800           0
     27159 TIP3     4453     TIP3     H2       HT       0.417000       1.00800           0
     27160 TIP3     4454     TIP3     OH2      OT      -0.834000       15.9994           0
     27161 TIP3     4454     TIP3     H1       HT       0.417000       1.00800           0
     27162 TIP3     4454     TIP3     H2       HT       0.417000       1.00800           0
     27163 TIP3     4455     TIP3     OH2      OT      -0.834000       15.9994           0
     27164 TIP3     4455     TIP3     H1       HT       0.417000       1.00800           0
     27165 TIP3     4455     TIP3     H2       HT       0.417000       1.00800           0
     27166 TIP3     4456     TIP3     OH2      OT      -0.834000       15.9994           0
     27167 TIP3     4456     TIP3     H1       HT       0.417000       1.00800           0
     27168 TIP3     4456     TIP3     H2       HT       0.417000       1.00800           0
     27169 TIP3     4457     TIP3     OH2      OT      -0.834000       15.9994           0
     27170 TIP3     4457     TIP3     H1       HT       0.417000       1.00800           0
     27171 TIP3     4457     TIP3     H2       HT       0.417000       1.00800           0
     27172 TIP3     4458     TIP3     OH2      OT      -0.834000       15.9994           0
     27173 TIP3     4458     TIP3     H1       HT       0.417000       1.00800           0
     27174 TIP3     4458     TIP3     H2       HT       0.417000       1.00800           0
     27175 TIP3     4459     TIP3     OH2      OT      -0.834000       15.9994           0
     27176 TIP3     4459     TIP3     H1       HT       0.417000       1.00800           0
     27177 TIP3     4459     TIP3     H2       HT       0.417000       1.00800           0
     27178 TIP3     4460     TIP3     OH2      OT      -0.834000       15.9994           0
     27179 TIP3     4460     TIP3     H1       HT       0.417000       1.00800           0
     27180 TIP3     4460     TIP3     H2       HT       0.417000       1.00800           0
     27181 TIP3     4461     TIP3     OH2      OT      -0.834000       15.9994           0
     27182 TIP3     4461     TIP3     H1       HT       0.417000       1.00800           0
     27183 TIP3     4461     TIP3     H2       HT       0.417000       1.00800           0
     27184 TIP3     4462     TIP3     OH2      OT      -0.834000       15.9994           0
     27185 TIP3     4462     TIP3     H1       HT       0.417000       1.00800           0
     27186 TIP3     4462     TIP3     H2       HT       0.417000       1.00800           0
     27187 TIP3     4463     TIP3     OH2      OT      -0.834000       15.9994           0
     27188 TIP3     4463     TIP3     H1       HT       0.417000       1.00800           0
     27189 TIP3     4463     TIP3     H2       HT       0.417000       1.00800           0
     27190 TIP3     4464     TIP3     OH2      OT      -0.834000       15.9994           0
     27191 TIP3     4464     TIP3     H1       HT       0.417000       1.00800           0
     27192 TIP3     4464     TIP3     H2       HT       0.417000       1.00800           0
     27193 TIP3     4465     TIP3     OH2      OT      -0.834000       15.9994           0
     27194 TIP3     4465     TIP3     H1       HT       0.417000       1.00800           0
     27195 TIP3     4465     TIP3     H2       HT       0.417000       1.00800           0
     27196 TIP3     4466     TIP3     OH2      OT      -0.834000       15.9994           0
     27197 TIP3     4466     TIP3     H1       HT       0.417000       1.00800           0
     27198 TIP3     4466     TIP3     H2       HT       0.417000       1.00800           0
     27199 TIP3     4467     TIP3     OH2      OT      -0.834000       15.9994           0
     27200 TIP3     4467     TIP3     H1       HT       0.417000       1.00800           0
     27201 TIP3     4467     TIP3     H2       HT       0.417000       1.00800           0
     27202 TIP3     4468     TIP3     OH2      OT      -0.834000       15.9994           0
     27203 TIP3     4468     TIP3     H1       HT       0.417000       1.00800           0
     27204 TIP3     4468     TIP3     H2       HT       0.417000       1.00800           0
     27205 TIP3     4469     TIP3     OH2      OT      -0.834000       15.9994           0
     27206 TIP3     4469     TIP3     H1       HT       0.417000       1.00800           0
     27207 TIP3     4469     TIP3     H2       HT       0.417000       1.00800           0
     27208 TIP3     4470     TIP3     OH2      OT      -0.834000       15.9994           0
     27209 TIP3     4470     TIP3     H1       HT       0.417000       1.00800           0
     27210 TIP3     4470     TIP3     H2       HT       0.417000       1.00800           0
     27211 TIP3     4471     TIP3     OH2      OT      -0.834000       15.9994           0
     27212 TIP3     4471     TIP3     H1       HT       0.417000       1.00800           0
     27213 TIP3     4471     TIP3     H2       HT       0.417000       1.00800           0
     27214 TIP3     4472     TIP3     OH2      OT      -0.834000       15.9994           0
     27215 TIP3     4472     TIP3     H1       HT       0.417000       1.00800           0
     27216 TIP3     4472     TIP3     H2       HT       0.417000       1.00800           0
     27217 TIP3     4473     TIP3     OH2      OT      -0.834000       15.9994           0
     27218 TIP3     4473     TIP3     H1       HT       0.417000       1.00800           0
     27219 TIP3     4473     TIP3     H2       HT       0.417000       1.00800           0
     27220 TIP3     4474     TIP3     OH2      OT      -0.834000       15.9994           0
     27221 TIP3     4474     TIP3     H1       HT       0.417000       1.00800           0
     27222 TIP3     4474     TIP3     H2       HT       0.417000       1.00800           0
     27223 TIP3     4475     TIP3     OH2      OT      -0.834000       15.9994           0
     27224 TIP3     4475     TIP3     H1       HT       0.417000       1.00800           0
     27225 TIP3     4475     TIP3     H2       HT       0.417000       1.00800           0
     27226 TIP3     4476     TIP3     OH2      OT      -0.834000       15.9994           0
     27227 TIP3     4476     TIP3     H1       HT       0.417000       1.00800           0
     27228 TIP3     4476     TIP3     H2       HT       0.417000       1.00800           0
     27229 TIP3     4477     TIP3     OH2      OT      -0.834000       15.9994           0
     27230 TIP3     4477     TIP3     H1       HT       0.417000       1.00800           0
     27231 TIP3     4477     TIP3     H2       HT       0.417000       1.00800           0
     27232 TIP3     4478     TIP3     OH2      OT      -0.834000       15.9994           0
     27233 TIP3     4478     TIP3     H1       HT       0.417000       1.00800           0
     27234 TIP3     4478     TIP3     H2       HT       0.417000       1.00800           0
     27235 TIP3     4479     TIP3     OH2      OT      -0.834000       15.9994           0
     27236 TIP3     4479     TIP3     H1       HT       0.417000       1.00800           0
     27237 TIP3     4479     TIP3     H2       HT       0.417000       1.00800           0
     27238 TIP3     4480     TIP3     OH2      OT      -0.834000       15.9994           0
     27239 TIP3     4480     TIP3     H1       HT       0.417000       1.00800           0
     27240 TIP3     4480     TIP3     H2       HT       0.417000       1.00800           0
     27241 TIP3     4481     TIP3     OH2      OT      -0.834000       15.9994           0
     27242 TIP3     4481     TIP3     H1       HT       0.417000       1.00800           0
     27243 TIP3     4481     TIP3     H2       HT       0.417000       1.00800           0
     27244 TIP3     4482     TIP3     OH2      OT      -0.834000       15.9994           0
     27245 TIP3     4482     TIP3     H1       HT       0.417000       1.00800           0
     27246 TIP3     4482     TIP3     H2       HT       0.417000       1.00800           0
     27247 TIP3     4483     TIP3     OH2      OT      -0.834000       15.9994           0
     27248 TIP3     4483     TIP3     H1       HT       0.417000       1.00800           0
     27249 TIP3     4483     TIP3     H2       HT       0.417000       1.00800           0
     27250 TIP3     4484     TIP3     OH2      OT      -0.834000       15.9994           0
     27251 TIP3     4484     TIP3     H1       HT       0.417000       1.00800           0
     27252 TIP3     4484     TIP3     H2       HT       0.417000       1.00800           0
     27253 TIP3     4485     TIP3     OH2      OT      -0.834000       15.9994           0
     27254 TIP3     4485     TIP3     H1       HT       0.417000       1.00800           0
     27255 TIP3     4485     TIP3     H2       HT       0.417000       1.00800           0
     27256 TIP3     4486     TIP3     OH2      OT      -0.834000       15.9994           0
     27257 TIP3     4486     TIP3     H1       HT       0.417000       1.00800           0
     27258 TIP3     4486     TIP3     H2       HT       0.417000       1.00800           0
     27259 TIP3     4487     TIP3     OH2      OT      -0.834000       15.9994           0
     27260 TIP3     4487     TIP3     H1       HT       0.417000       1.00800           0
     27261 TIP3     4487     TIP3     H2       HT       0.417000       1.00800           0
     27262 TIP3     4488     TIP3     OH2      OT      -0.834000       15.9994           0
     27263 TIP3     4488     TIP3     H1       HT       0.417000       1.00800           0
     27264 TIP3     4488     TIP3     H2       HT       0.417000       1.00800           0
     27265 TIP3     4489     TIP3     OH2      OT      -0.834000       15.9994           0
     27266 TIP3     4489     TIP3     H1       HT       0.417000       1.00800           0
     27267 TIP3     4489     TIP3     H2       HT       0.417000       1.00800           0
     27268 TIP3     4490     TIP3     OH2      OT      -0.834000       15.9994           0
     27269 TIP3     4490     TIP3     H1       HT       0.417000       1.00800           0
     27270 TIP3     4490     TIP3     H2       HT       0.417000       1.00800           0
     27271 TIP3     4491     TIP3     OH2      OT      -0.834000       15.9994           0
     27272 TIP3     4491     TIP3     H1       HT       0.417000       1.00800           0
     27273 TIP3     4491     TIP3     H2       HT       0.417000       1.00800           0
     27274 TIP3     4492     TIP3     OH2      OT      -0.834000       15.9994           0
     27275 TIP3     4492     TIP3     H1       HT       0.417000       1.00800           0
     27276 TIP3     4492     TIP3     H2       HT       0.417000       1.00800           0
     27277 TIP3     4493     TIP3     OH2      OT      -0.834000       15.9994           0
     27278 TIP3     4493     TIP3     H1       HT       0.417000       1.00800           0
     27279 TIP3     4493     TIP3     H2       HT       0.417000       1.00800           0
     27280 TIP3     4494     TIP3     OH2      OT      -0.834000       15.9994           0
     27281 TIP3     4494     TIP3     H1       HT       0.417000       1.00800           0
     27282 TIP3     4494     TIP3     H2       HT       0.417000       1.00800           0
     27283 TIP3     4495     TIP3     OH2      OT      -0.834000       15.9994           0
     27284 TIP3     4495     TIP3     H1       HT       0.417000       1.00800           0
     27285 TIP3     4495     TIP3     H2       HT       0.417000       1.00800           0
     27286 TIP3     4496     TIP3     OH2      OT      -0.834000       15.9994           0
     27287 TIP3     4496     TIP3     H1       HT       0.417000       1.00800           0
     27288 TIP3     4496     TIP3     H2       HT       0.417000       1.00800           0
     27289 TIP3     4497     TIP3     OH2      OT      -0.834000       15.9994           0
     27290 TIP3     4497     TIP3     H1       HT       0.417000       1.00800           0
     27291 TIP3     4497     TIP3     H2       HT       0.417000       1.00800           0
     27292 TIP3     4498     TIP3     OH2      OT      -0.834000       15.9994           0
     27293 TIP3     4498     TIP3     H1       HT       0.417000       1.00800           0
     27294 TIP3     4498     TIP3     H2       HT       0.417000       1.00800           0
     27295 TIP3     4499     TIP3     OH2      OT      -0.834000       15.9994           0
     27296 TIP3     4499     TIP3     H1       HT       0.417000       1.00800           0
     27297 TIP3     4499     TIP3     H2       HT       0.417000       1.00800           0
     27298 TIP3     4500     TIP3     OH2      OT      -0.834000       15.9994           0
     27299 TIP3     4500     TIP3     H1       HT       0.417000       1.00800           0
     27300 TIP3     4500     TIP3     H2       HT       0.417000       1.00800           0
     27301 TIP3     4501     TIP3     OH2      OT      -0.834000       15.9994           0
     27302 TIP3     4501     TIP3     H1       HT       0.417000       1.00800           0
     27303 TIP3     4501     TIP3     H2       HT       0.417000       1.00800           0
     27304 TIP3     4502     TIP3     OH2      OT      -0.834000       15.9994           0
     27305 TIP3     4502     TIP3     H1       HT       0.417000       1.00800           0
     27306 TIP3     4502     TIP3     H2       HT       0.417000       1.00800           0
     27307 TIP3     4503     TIP3     OH2      OT      -0.834000       15.9994           0
     27308 TIP3     4503     TIP3     H1       HT       0.417000       1.00800           0
     27309 TIP3     4503     TIP3     H2       HT       0.417000       1.00800           0
     27310 TIP3     4504     TIP3     OH2      OT      -0.834000       15.9994           0
     27311 TIP3     4504     TIP3     H1       HT       0.417000       1.00800           0
     27312 TIP3     4504     TIP3     H2       HT       0.417000       1.00800           0
     27313 TIP3     4505     TIP3     OH2      OT      -0.834000       15.9994           0
     27314 TIP3     4505     TIP3     H1       HT       0.417000       1.00800           0
     27315 TIP3     4505     TIP3     H2       HT       0.417000       1.00800           0
     27316 TIP3     4506     TIP3     OH2      OT      -0.834000       15.9994           0
     27317 TIP3     4506     TIP3     H1       HT       0.417000       1.00800           0
     27318 TIP3     4506     TIP3     H2       HT       0.417000       1.00800           0
     27319 TIP3     4507     TIP3     OH2      OT      -0.834000       15.9994           0
     27320 TIP3     4507     TIP3     H1       HT       0.417000       1.00800           0
     27321 TIP3     4507     TIP3     H2       HT       0.417000       1.00800           0
     27322 TIP3     4508     TIP3     OH2      OT      -0.834000       15.9994           0
     27323 TIP3     4508     TIP3     H1       HT       0.417000       1.00800           0
     27324 TIP3     4508     TIP3     H2       HT       0.417000       1.00800           0
     27325 TIP3     4509     TIP3     OH2      OT      -0.834000       15.9994           0
     27326 TIP3     4509     TIP3     H1       HT       0.417000       1.00800           0
     27327 TIP3     4509     TIP3     H2       HT       0.417000       1.00800           0
     27328 TIP3     4510     TIP3     OH2      OT      -0.834000       15.9994           0
     27329 TIP3     4510     TIP3     H1       HT       0.417000       1.00800           0
     27330 TIP3     4510     TIP3     H2       HT       0.417000       1.00800           0
     27331 TIP3     4511     TIP3     OH2      OT      -0.834000       15.9994           0
     27332 TIP3     4511     TIP3     H1       HT       0.417000       1.00800           0
     27333 TIP3     4511     TIP3     H2       HT       0.417000       1.00800           0
     27334 TIP3     4512     TIP3     OH2      OT      -0.834000       15.9994           0
     27335 TIP3     4512     TIP3     H1       HT       0.417000       1.00800           0
     27336 TIP3     4512     TIP3     H2       HT       0.417000       1.00800           0
     27337 TIP3     4513     TIP3     OH2      OT      -0.834000       15.9994           0
     27338 TIP3     4513     TIP3     H1       HT       0.417000       1.00800           0
     27339 TIP3     4513     TIP3     H2       HT       0.417000       1.00800           0
     27340 TIP3     4514     TIP3     OH2      OT      -0.834000       15.9994           0
     27341 TIP3     4514     TIP3     H1       HT       0.417000       1.00800           0
     27342 TIP3     4514     TIP3     H2       HT       0.417000       1.00800           0
     27343 TIP3     4515     TIP3     OH2      OT      -0.834000       15.9994           0
     27344 TIP3     4515     TIP3     H1       HT       0.417000       1.00800           0
     27345 TIP3     4515     TIP3     H2       HT       0.417000       1.00800           0
     27346 TIP3     4516     TIP3     OH2      OT      -0.834000       15.9994           0
     27347 TIP3     4516     TIP3     H1       HT       0.417000       1.00800           0
     27348 TIP3     4516     TIP3     H2       HT       0.417000       1.00800           0
     27349 TIP3     4517     TIP3     OH2      OT      -0.834000       15.9994           0
     27350 TIP3     4517     TIP3     H1       HT       0.417000       1.00800           0
     27351 TIP3     4517     TIP3     H2       HT       0.417000       1.00800           0
     27352 TIP3     4518     TIP3     OH2      OT      -0.834000       15.9994           0
     27353 TIP3     4518     TIP3     H1       HT       0.417000       1.00800           0
     27354 TIP3     4518     TIP3     H2       HT       0.417000       1.00800           0
     27355 TIP3     4519     TIP3     OH2      OT      -0.834000       15.9994           0
     27356 TIP3     4519     TIP3     H1       HT       0.417000       1.00800           0
     27357 TIP3     4519     TIP3     H2       HT       0.417000       1.00800           0
     27358 TIP3     4520     TIP3     OH2      OT      -0.834000       15.9994           0
     27359 TIP3     4520     TIP3     H1       HT       0.417000       1.00800           0
     27360 TIP3     4520     TIP3     H2       HT       0.417000       1.00800           0
     27361 TIP3     4521     TIP3     OH2      OT      -0.834000       15.9994           0
     27362 TIP3     4521     TIP3     H1       HT       0.417000       1.00800           0
     27363 TIP3     4521     TIP3     H2       HT       0.417000       1.00800           0
     27364 TIP3     4522     TIP3     OH2      OT      -0.834000       15.9994           0
     27365 TIP3     4522     TIP3     H1       HT       0.417000       1.00800           0
     27366 TIP3     4522     TIP3     H2       HT       0.417000       1.00800           0
     27367 TIP3     4523     TIP3     OH2      OT      -0.834000       15.9994           0
     27368 TIP3     4523     TIP3     H1       HT       0.417000       1.00800           0
     27369 TIP3     4523     TIP3     H2       HT       0.417000       1.00800           0
     27370 TIP3     4524     TIP3     OH2      OT      -0.834000       15.9994           0
     27371 TIP3     4524     TIP3     H1       HT       0.417000       1.00800           0
     27372 TIP3     4524     TIP3     H2       HT       0.417000       1.00800           0
     27373 TIP3     4525     TIP3     OH2      OT      -0.834000       15.9994           0
     27374 TIP3     4525     TIP3     H1       HT       0.417000       1.00800           0
     27375 TIP3     4525     TIP3     H2       HT       0.417000       1.00800           0
     27376 TIP3     4526     TIP3     OH2      OT      -0.834000       15.9994           0
     27377 TIP3     4526     TIP3     H1       HT       0.417000       1.00800           0
     27378 TIP3     4526     TIP3     H2       HT       0.417000       1.00800           0
     27379 TIP3     4527     TIP3     OH2      OT      -0.834000       15.9994           0
     27380 TIP3     4527     TIP3     H1       HT       0.417000       1.00800           0
     27381 TIP3     4527     TIP3     H2       HT       0.417000       1.00800           0
     27382 TIP3     4528     TIP3     OH2      OT      -0.834000       15.9994           0
     27383 TIP3     4528     TIP3     H1       HT       0.417000       1.00800           0
     27384 TIP3     4528     TIP3     H2       HT       0.417000       1.00800           0
     27385 TIP3     4529     TIP3     OH2      OT      -0.834000       15.9994           0
     27386 TIP3     4529     TIP3     H1       HT       0.417000       1.00800           0
     27387 TIP3     4529     TIP3     H2       HT       0.417000       1.00800           0
     27388 TIP3     4530     TIP3     OH2      OT      -0.834000       15.9994           0
     27389 TIP3     4530     TIP3     H1       HT       0.417000       1.00800           0
     27390 TIP3     4530     TIP3     H2       HT       0.417000       1.00800           0
     27391 TIP3     4531     TIP3     OH2      OT      -0.834000       15.9994           0
     27392 TIP3     4531     TIP3     H1       HT       0.417000       1.00800           0
     27393 TIP3     4531     TIP3     H2       HT       0.417000       1.00800           0
     27394 TIP3     4532     TIP3     OH2      OT      -0.834000       15.9994           0
     27395 TIP3     4532     TIP3     H1       HT       0.417000       1.00800           0
     27396 TIP3     4532     TIP3     H2       HT       0.417000       1.00800           0
     27397 TIP3     4533     TIP3     OH2      OT      -0.834000       15.9994           0
     27398 TIP3     4533     TIP3     H1       HT       0.417000       1.00800           0
     27399 TIP3     4533     TIP3     H2       HT       0.417000       1.00800           0
     27400 TIP3     4534     TIP3     OH2      OT      -0.834000       15.9994           0
     27401 TIP3     4534     TIP3     H1       HT       0.417000       1.00800           0
     27402 TIP3     4534     TIP3     H2       HT       0.417000       1.00800           0
     27403 TIP3     4535     TIP3     OH2      OT      -0.834000       15.9994           0
     27404 TIP3     4535     TIP3     H1       HT       0.417000       1.00800           0
     27405 TIP3     4535     TIP3     H2       HT       0.417000       1.00800           0
     27406 TIP3     4536     TIP3     OH2      OT      -0.834000       15.9994           0
     27407 TIP3     4536     TIP3     H1       HT       0.417000       1.00800           0
     27408 TIP3     4536     TIP3     H2       HT       0.417000       1.00800           0
     27409 TIP3     4537     TIP3     OH2      OT      -0.834000       15.9994           0
     27410 TIP3     4537     TIP3     H1       HT       0.417000       1.00800           0
     27411 TIP3     4537     TIP3     H2       HT       0.417000       1.00800           0
     27412 TIP3     4538     TIP3     OH2      OT      -0.834000       15.9994           0
     27413 TIP3     4538     TIP3     H1       HT       0.417000       1.00800           0
     27414 TIP3     4538     TIP3     H2       HT       0.417000       1.00800           0
     27415 TIP3     4539     TIP3     OH2      OT      -0.834000       15.9994           0
     27416 TIP3     4539     TIP3     H1       HT       0.417000       1.00800           0
     27417 TIP3     4539     TIP3     H2       HT       0.417000       1.00800           0
     27418 TIP3     4540     TIP3     OH2      OT      -0.834000       15.9994           0
     27419 TIP3     4540     TIP3     H1       HT       0.417000       1.00800           0
     27420 TIP3     4540     TIP3     H2       HT       0.417000       1.00800           0
     27421 TIP3     4541     TIP3     OH2      OT      -0.834000       15.9994           0
     27422 TIP3     4541     TIP3     H1       HT       0.417000       1.00800           0
     27423 TIP3     4541     TIP3     H2       HT       0.417000       1.00800           0
     27424 TIP3     4542     TIP3     OH2      OT      -0.834000       15.9994           0
     27425 TIP3     4542     TIP3     H1       HT       0.417000       1.00800           0
     27426 TIP3     4542     TIP3     H2       HT       0.417000       1.00800           0
     27427 TIP3     4543     TIP3     OH2      OT      -0.834000       15.9994           0
     27428 TIP3     4543     TIP3     H1       HT       0.417000       1.00800           0
     27429 TIP3     4543     TIP3     H2       HT       0.417000       1.00800           0
     27430 TIP3     4544     TIP3     OH2      OT      -0.834000       15.9994           0
     27431 TIP3     4544     TIP3     H1       HT       0.417000       1.00800           0
     27432 TIP3     4544     TIP3     H2       HT       0.417000       1.00800           0
     27433 TIP3     4545     TIP3     OH2      OT      -0.834000       15.9994           0
     27434 TIP3     4545     TIP3     H1       HT       0.417000       1.00800           0
     27435 TIP3     4545     TIP3     H2       HT       0.417000       1.00800           0
     27436 TIP3     4546     TIP3     OH2      OT      -0.834000       15.9994           0
     27437 TIP3     4546     TIP3     H1       HT       0.417000       1.00800           0
     27438 TIP3     4546     TIP3     H2       HT       0.417000       1.00800           0
     27439 TIP3     4547     TIP3     OH2      OT      -0.834000       15.9994           0
     27440 TIP3     4547     TIP3     H1       HT       0.417000       1.00800           0
     27441 TIP3     4547     TIP3     H2       HT       0.417000       1.00800           0
     27442 TIP3     4548     TIP3     OH2      OT      -0.834000       15.9994           0
     27443 TIP3     4548     TIP3     H1       HT       0.417000       1.00800           0
     27444 TIP3     4548     TIP3     H2       HT       0.417000       1.00800           0
     27445 TIP3     4549     TIP3     OH2      OT      -0.834000       15.9994           0
     27446 TIP3     4549     TIP3     H1       HT       0.417000       1.00800           0
     27447 TIP3     4549     TIP3     H2       HT       0.417000       1.00800           0
     27448 TIP3     4550     TIP3     OH2      OT      -0.834000       15.9994           0
     27449 TIP3     4550     TIP3     H1       HT       0.417000       1.00800           0
     27450 TIP3     4550     TIP3     H2       HT       0.417000       1.00800           0
     27451 TIP3     4551     TIP3     OH2      OT      -0.834000       15.9994           0
     27452 TIP3     4551     TIP3     H1       HT       0.417000       1.00800           0
     27453 TIP3     4551     TIP3     H2       HT       0.417000       1.00800           0
     27454 TIP3     4552     TIP3     OH2      OT      -0.834000       15.9994           0
     27455 TIP3     4552     TIP3     H1       HT       0.417000       1.00800           0
     27456 TIP3     4552     TIP3     H2       HT       0.417000       1.00800           0
     27457 TIP3     4553     TIP3     OH2      OT      -0.834000       15.9994           0
     27458 TIP3     4553     TIP3     H1       HT       0.417000       1.00800           0
     27459 TIP3     4553     TIP3     H2       HT       0.417000       1.00800           0
     27460 TIP3     4554     TIP3     OH2      OT      -0.834000       15.9994           0
     27461 TIP3     4554     TIP3     H1       HT       0.417000       1.00800           0
     27462 TIP3     4554     TIP3     H2       HT       0.417000       1.00800           0
     27463 TIP3     4555     TIP3     OH2      OT      -0.834000       15.9994           0
     27464 TIP3     4555     TIP3     H1       HT       0.417000       1.00800           0
     27465 TIP3     4555     TIP3     H2       HT       0.417000       1.00800           0
     27466 TIP3     4556     TIP3     OH2      OT      -0.834000       15.9994           0
     27467 TIP3     4556     TIP3     H1       HT       0.417000       1.00800           0
     27468 TIP3     4556     TIP3     H2       HT       0.417000       1.00800           0
     27469 TIP3     4557     TIP3     OH2      OT      -0.834000       15.9994           0
     27470 TIP3     4557     TIP3     H1       HT       0.417000       1.00800           0
     27471 TIP3     4557     TIP3     H2       HT       0.417000       1.00800           0
     27472 TIP3     4558     TIP3     OH2      OT      -0.834000       15.9994           0
     27473 TIP3     4558     TIP3     H1       HT       0.417000       1.00800           0
     27474 TIP3     4558     TIP3     H2       HT       0.417000       1.00800           0
     27475 TIP3     4559     TIP3     OH2      OT      -0.834000       15.9994           0
     27476 TIP3     4559     TIP3     H1       HT       0.417000       1.00800           0
     27477 TIP3     4559     TIP3     H2       HT       0.417000       1.00800           0
     27478 TIP3     4560     TIP3     OH2      OT      -0.834000       15.9994           0
     27479 TIP3     4560     TIP3     H1       HT       0.417000       1.00800           0
     27480 TIP3     4560     TIP3     H2       HT       0.417000       1.00800           0
     27481 TIP3     4561     TIP3     OH2      OT      -0.834000       15.9994           0
     27482 TIP3     4561     TIP3     H1       HT       0.417000       1.00800           0
     27483 TIP3     4561     TIP3     H2       HT       0.417000       1.00800           0
     27484 TIP3     4562     TIP3     OH2      OT      -0.834000       15.9994           0
     27485 TIP3     4562     TIP3     H1       HT       0.417000       1.00800           0
     27486 TIP3     4562     TIP3     H2       HT       0.417000       1.00800           0
     27487 TIP3     4563     TIP3     OH2      OT      -0.834000       15.9994           0
     27488 TIP3     4563     TIP3     H1       HT       0.417000       1.00800           0
     27489 TIP3     4563     TIP3     H2       HT       0.417000       1.00800           0
     27490 TIP3     4564     TIP3     OH2      OT      -0.834000       15.9994           0
     27491 TIP3     4564     TIP3     H1       HT       0.417000       1.00800           0
     27492 TIP3     4564     TIP3     H2       HT       0.417000       1.00800           0
     27493 TIP3     4565     TIP3     OH2      OT      -0.834000       15.9994           0
     27494 TIP3     4565     TIP3     H1       HT       0.417000       1.00800           0
     27495 TIP3     4565     TIP3     H2       HT       0.417000       1.00800           0
     27496 TIP3     4566     TIP3     OH2      OT      -0.834000       15.9994           0
     27497 TIP3     4566     TIP3     H1       HT       0.417000       1.00800           0
     27498 TIP3     4566     TIP3     H2       HT       0.417000       1.00800           0
     27499 TIP3     4567     TIP3     OH2      OT      -0.834000       15.9994           0
     27500 TIP3     4567     TIP3     H1       HT       0.417000       1.00800           0
     27501 TIP3     4567     TIP3     H2       HT       0.417000       1.00800           0
     27502 TIP3     4568     TIP3     OH2      OT      -0.834000       15.9994           0
     27503 TIP3     4568     TIP3     H1       HT       0.417000       1.00800           0
     27504 TIP3     4568     TIP3     H2       HT       0.417000       1.00800           0
     27505 TIP3     4569     TIP3     OH2      OT      -0.834000       15.9994           0
     27506 TIP3     4569     TIP3     H1       HT       0.417000       1.00800           0
     27507 TIP3     4569     TIP3     H2       HT       0.417000       1.00800           0
     27508 TIP3     4570     TIP3     OH2      OT      -0.834000       15.9994           0
     27509 TIP3     4570     TIP3     H1       HT       0.417000       1.00800           0
     27510 TIP3     4570     TIP3     H2       HT       0.417000       1.00800           0
     27511 TIP3     4571     TIP3     OH2      OT      -0.834000       15.9994           0
     27512 TIP3     4571     TIP3     H1       HT       0.417000       1.00800           0
     27513 TIP3     4571     TIP3     H2       HT       0.417000       1.00800           0
     27514 TIP3     4572     TIP3     OH2      OT      -0.834000       15.9994           0
     27515 TIP3     4572     TIP3     H1       HT       0.417000       1.00800           0
     27516 TIP3     4572     TIP3     H2       HT       0.417000       1.00800           0
     27517 TIP3     4573     TIP3     OH2      OT      -0.834000       15.9994           0
     27518 TIP3     4573     TIP3     H1       HT       0.417000       1.00800           0
     27519 TIP3     4573     TIP3     H2       HT       0.417000       1.00800           0
     27520 TIP3     4574     TIP3     OH2      OT      -0.834000       15.9994           0
     27521 TIP3     4574     TIP3     H1       HT       0.417000       1.00800           0
     27522 TIP3     4574     TIP3     H2       HT       0.417000       1.00800           0
     27523 TIP3     4575     TIP3     OH2      OT      -0.834000       15.9994           0
     27524 TIP3     4575     TIP3     H1       HT       0.417000       1.00800           0
     27525 TIP3     4575     TIP3     H2       HT       0.417000       1.00800           0
     27526 TIP3     4576     TIP3     OH2      OT      -0.834000       15.9994           0
     27527 TIP3     4576     TIP3     H1       HT       0.417000       1.00800           0
     27528 TIP3     4576     TIP3     H2       HT       0.417000       1.00800           0
     27529 TIP3     4577     TIP3     OH2      OT      -0.834000       15.9994           0
     27530 TIP3     4577     TIP3     H1       HT       0.417000       1.00800           0
     27531 TIP3     4577     TIP3     H2       HT       0.417000       1.00800           0
     27532 TIP3     4578     TIP3     OH2      OT      -0.834000       15.9994           0
     27533 TIP3     4578     TIP3     H1       HT       0.417000       1.00800           0
     27534 TIP3     4578     TIP3     H2       HT       0.417000       1.00800           0
     27535 TIP3     4579     TIP3     OH2      OT      -0.834000       15.9994           0
     27536 TIP3     4579     TIP3     H1       HT       0.417000       1.00800           0
     27537 TIP3     4579     TIP3     H2       HT       0.417000       1.00800           0
     27538 TIP3     4580     TIP3     OH2      OT      -0.834000       15.9994           0
     27539 TIP3     4580     TIP3     H1       HT       0.417000       1.00800           0
     27540 TIP3     4580     TIP3     H2       HT       0.417000       1.00800           0
     27541 TIP3     4581     TIP3     OH2      OT      -0.834000       15.9994           0
     27542 TIP3     4581     TIP3     H1       HT       0.417000       1.00800           0
     27543 TIP3     4581     TIP3     H2       HT       0.417000       1.00800           0
     27544 TIP3     4582     TIP3     OH2      OT      -0.834000       15.9994           0
     27545 TIP3     4582     TIP3     H1       HT       0.417000       1.00800           0
     27546 TIP3     4582     TIP3     H2       HT       0.417000       1.00800           0
     27547 TIP3     4583     TIP3     OH2      OT      -0.834000       15.9994           0
     27548 TIP3     4583     TIP3     H1       HT       0.417000       1.00800           0
     27549 TIP3     4583     TIP3     H2       HT       0.417000       1.00800           0
     27550 TIP3     4584     TIP3     OH2      OT      -0.834000       15.9994           0
     27551 TIP3     4584     TIP3     H1       HT       0.417000       1.00800           0
     27552 TIP3     4584     TIP3     H2       HT       0.417000       1.00800           0
     27553 TIP3     4585     TIP3     OH2      OT      -0.834000       15.9994           0
     27554 TIP3     4585     TIP3     H1       HT       0.417000       1.00800           0
     27555 TIP3     4585     TIP3     H2       HT       0.417000       1.00800           0
     27556 TIP3     4586     TIP3     OH2      OT      -0.834000       15.9994           0
     27557 TIP3     4586     TIP3     H1       HT       0.417000       1.00800           0
     27558 TIP3     4586     TIP3     H2       HT       0.417000       1.00800           0
     27559 TIP3     4587     TIP3     OH2      OT      -0.834000       15.9994           0
     27560 TIP3     4587     TIP3     H1       HT       0.417000       1.00800           0
     27561 TIP3     4587     TIP3     H2       HT       0.417000       1.00800           0
     27562 TIP3     4588     TIP3     OH2      OT      -0.834000       15.9994           0
     27563 TIP3     4588     TIP3     H1       HT       0.417000       1.00800           0
     27564 TIP3     4588     TIP3     H2       HT       0.417000       1.00800           0
     27565 TIP3     4589     TIP3     OH2      OT      -0.834000       15.9994           0
     27566 TIP3     4589     TIP3     H1       HT       0.417000       1.00800           0
     27567 TIP3     4589     TIP3     H2       HT       0.417000       1.00800           0
     27568 TIP3     4590     TIP3     OH2      OT      -0.834000       15.9994           0
     27569 TIP3     4590     TIP3     H1       HT       0.417000       1.00800           0
     27570 TIP3     4590     TIP3     H2       HT       0.417000       1.00800           0
     27571 TIP3     4591     TIP3     OH2      OT      -0.834000       15.9994           0
     27572 TIP3     4591     TIP3     H1       HT       0.417000       1.00800           0
     27573 TIP3     4591     TIP3     H2       HT       0.417000       1.00800           0
     27574 TIP3     4592     TIP3     OH2      OT      -0.834000       15.9994           0
     27575 TIP3     4592     TIP3     H1       HT       0.417000       1.00800           0
     27576 TIP3     4592     TIP3     H2       HT       0.417000       1.00800           0
     27577 TIP3     4593     TIP3     OH2      OT      -0.834000       15.9994           0
     27578 TIP3     4593     TIP3     H1       HT       0.417000       1.00800           0
     27579 TIP3     4593     TIP3     H2       HT       0.417000       1.00800           0
     27580 TIP3     4594     TIP3     OH2      OT      -0.834000       15.9994           0
     27581 TIP3     4594     TIP3     H1       HT       0.417000       1.00800           0
     27582 TIP3     4594     TIP3     H2       HT       0.417000       1.00800           0
     27583 TIP3     4595     TIP3     OH2      OT      -0.834000       15.9994           0
     27584 TIP3     4595     TIP3     H1       HT       0.417000       1.00800           0
     27585 TIP3     4595     TIP3     H2       HT       0.417000       1.00800           0
     27586 TIP3     4596     TIP3     OH2      OT      -0.834000       15.9994           0
     27587 TIP3     4596     TIP3     H1       HT       0.417000       1.00800           0
     27588 TIP3     4596     TIP3     H2       HT       0.417000       1.00800           0
     27589 TIP3     4597     TIP3     OH2      OT      -0.834000       15.9994           0
     27590 TIP3     4597     TIP3     H1       HT       0.417000       1.00800           0
     27591 TIP3     4597     TIP3     H2       HT       0.417000       1.00800           0
     27592 TIP3     4598     TIP3     OH2      OT      -0.834000       15.9994           0
     27593 TIP3     4598     TIP3     H1       HT       0.417000       1.00800           0
     27594 TIP3     4598     TIP3     H2       HT       0.417000       1.00800           0
     27595 TIP3     4599     TIP3     OH2      OT      -0.834000       15.9994           0
     27596 TIP3     4599     TIP3     H1       HT       0.417000       1.00800           0
     27597 TIP3     4599     TIP3     H2       HT       0.417000       1.00800           0
     27598 TIP3     4600     TIP3     OH2      OT      -0.834000       15.9994           0
     27599 TIP3     4600     TIP3     H1       HT       0.417000       1.00800           0
     27600 TIP3     4600     TIP3     H2       HT       0.417000       1.00800           0
     27601 TIP3     4601     TIP3     OH2      OT      -0.834000       15.9994           0
     27602 TIP3     4601     TIP3     H1       HT       0.417000       1.00800           0
     27603 TIP3     4601     TIP3     H2       HT       0.417000       1.00800           0
     27604 TIP3     4602     TIP3     OH2      OT      -0.834000       15.9994           0
     27605 TIP3     4602     TIP3     H1       HT       0.417000       1.00800           0
     27606 TIP3     4602     TIP3     H2       HT       0.417000       1.00800           0
     27607 TIP3     4603     TIP3     OH2      OT      -0.834000       15.9994           0
     27608 TIP3     4603     TIP3     H1       HT       0.417000       1.00800           0
     27609 TIP3     4603     TIP3     H2       HT       0.417000       1.00800           0
     27610 TIP3     4604     TIP3     OH2      OT      -0.834000       15.9994           0
     27611 TIP3     4604     TIP3     H1       HT       0.417000       1.00800           0
     27612 TIP3     4604     TIP3     H2       HT       0.417000       1.00800           0
     27613 TIP3     4605     TIP3     OH2      OT      -0.834000       15.9994           0
     27614 TIP3     4605     TIP3     H1       HT       0.417000       1.00800           0
     27615 TIP3     4605     TIP3     H2       HT       0.417000       1.00800           0
     27616 TIP3     4606     TIP3     OH2      OT      -0.834000       15.9994           0
     27617 TIP3     4606     TIP3     H1       HT       0.417000       1.00800           0
     27618 TIP3     4606     TIP3     H2       HT       0.417000       1.00800           0
     27619 TIP3     4607     TIP3     OH2      OT      -0.834000       15.9994           0
     27620 TIP3     4607     TIP3     H1       HT       0.417000       1.00800           0
     27621 TIP3     4607     TIP3     H2       HT       0.417000       1.00800           0
     27622 TIP3     4608     TIP3     OH2      OT      -0.834000       15.9994           0
     27623 TIP3     4608     TIP3     H1       HT       0.417000       1.00800           0
     27624 TIP3     4608     TIP3     H2       HT       0.417000       1.00800           0
     27625 TIP3     4609     TIP3     OH2      OT      -0.834000       15.9994           0
     27626 TIP3     4609     TIP3     H1       HT       0.417000       1.00800           0
     27627 TIP3     4609     TIP3     H2       HT       0.417000       1.00800           0
     27628 TIP3     4610     TIP3     OH2      OT      -0.834000       15.9994           0
     27629 TIP3     4610     TIP3     H1       HT       0.417000       1.00800           0
     27630 TIP3     4610     TIP3     H2       HT       0.417000       1.00800           0
     27631 TIP3     4611     TIP3     OH2      OT      -0.834000       15.9994           0
     27632 TIP3     4611     TIP3     H1       HT       0.417000       1.00800           0
     27633 TIP3     4611     TIP3     H2       HT       0.417000       1.00800           0
     27634 TIP3     4612     TIP3     OH2      OT      -0.834000       15.9994           0
     27635 TIP3     4612     TIP3     H1       HT       0.417000       1.00800           0
     27636 TIP3     4612     TIP3     H2       HT       0.417000       1.00800           0
     27637 TIP3     4613     TIP3     OH2      OT      -0.834000       15.9994           0
     27638 TIP3     4613     TIP3     H1       HT       0.417000       1.00800           0
     27639 TIP3     4613     TIP3     H2       HT       0.417000       1.00800           0
     27640 TIP3     4614     TIP3     OH2      OT      -0.834000       15.9994           0
     27641 TIP3     4614     TIP3     H1       HT       0.417000       1.00800           0
     27642 TIP3     4614     TIP3     H2       HT       0.417000       1.00800           0
     27643 TIP3     4615     TIP3     OH2      OT      -0.834000       15.9994           0
     27644 TIP3     4615     TIP3     H1       HT       0.417000       1.00800           0
     27645 TIP3     4615     TIP3     H2       HT       0.417000       1.00800           0
     27646 TIP3     4616     TIP3     OH2      OT      -0.834000       15.9994           0
     27647 TIP3     4616     TIP3     H1       HT       0.417000       1.00800           0
     27648 TIP3     4616     TIP3     H2       HT       0.417000       1.00800           0
     27649 TIP3     4617     TIP3     OH2      OT      -0.834000       15.9994           0
     27650 TIP3     4617     TIP3     H1       HT       0.417000       1.00800           0
     27651 TIP3     4617     TIP3     H2       HT       0.417000       1.00800           0
     27652 TIP3     4618     TIP3     OH2      OT      -0.834000       15.9994           0
     27653 TIP3     4618     TIP3     H1       HT       0.417000       1.00800           0
     27654 TIP3     4618     TIP3     H2       HT       0.417000       1.00800           0
     27655 TIP3     4619     TIP3     OH2      OT      -0.834000       15.9994           0
     27656 TIP3     4619     TIP3     H1       HT       0.417000       1.00800           0
     27657 TIP3     4619     TIP3     H2       HT       0.417000       1.00800           0
     27658 TIP3     4620     TIP3     OH2      OT      -0.834000       15.9994           0
     27659 TIP3     4620     TIP3     H1       HT       0.417000       1.00800           0
     27660 TIP3     4620     TIP3     H2       HT       0.417000       1.00800           0
     27661 TIP3     4621     TIP3     OH2      OT      -0.834000       15.9994           0
     27662 TIP3     4621     TIP3     H1       HT       0.417000       1.00800           0
     27663 TIP3     4621     TIP3     H2       HT       0.417000       1.00800           0
     27664 TIP3     4622     TIP3     OH2      OT      -0.834000       15.9994           0
     27665 TIP3     4622     TIP3     H1       HT       0.417000       1.00800           0
     27666 TIP3     4622     TIP3     H2       HT       0.417000       1.00800           0
     27667 TIP3     4623     TIP3     OH2      OT      -0.834000       15.9994           0
     27668 TIP3     4623     TIP3     H1       HT       0.417000       1.00800           0
     27669 TIP3     4623     TIP3     H2       HT       0.417000       1.00800           0
     27670 TIP3     4624     TIP3     OH2      OT      -0.834000       15.9994           0
     27671 TIP3     4624     TIP3     H1       HT       0.417000       1.00800           0
     27672 TIP3     4624     TIP3     H2       HT       0.417000       1.00800           0
     27673 TIP3     4625     TIP3     OH2      OT      -0.834000       15.9994           0
     27674 TIP3     4625     TIP3     H1       HT       0.417000       1.00800           0
     27675 TIP3     4625     TIP3     H2       HT       0.417000       1.00800           0
     27676 TIP3     4626     TIP3     OH2      OT      -0.834000       15.9994           0
     27677 TIP3     4626     TIP3     H1       HT       0.417000       1.00800           0
     27678 TIP3     4626     TIP3     H2       HT       0.417000       1.00800           0
     27679 TIP3     4627     TIP3     OH2      OT      -0.834000       15.9994           0
     27680 TIP3     4627     TIP3     H1       HT       0.417000       1.00800           0
     27681 TIP3     4627     TIP3     H2       HT       0.417000       1.00800           0
     27682 TIP3     4628     TIP3     OH2      OT      -0.834000       15.9994           0
     27683 TIP3     4628     TIP3     H1       HT       0.417000       1.00800           0
     27684 TIP3     4628     TIP3     H2       HT       0.417000       1.00800           0
     27685 TIP3     4629     TIP3     OH2      OT      -0.834000       15.9994           0
     27686 TIP3     4629     TIP3     H1       HT       0.417000       1.00800           0
     27687 TIP3     4629     TIP3     H2       HT       0.417000       1.00800           0
     27688 TIP3     4630     TIP3     OH2      OT      -0.834000       15.9994           0
     27689 TIP3     4630     TIP3     H1       HT       0.417000       1.00800           0
     27690 TIP3     4630     TIP3     H2       HT       0.417000       1.00800           0
     27691 TIP3     4631     TIP3     OH2      OT      -0.834000       15.9994           0
     27692 TIP3     4631     TIP3     H1       HT       0.417000       1.00800           0
     27693 TIP3     4631     TIP3     H2       HT       0.417000       1.00800           0
     27694 TIP3     4632     TIP3     OH2      OT      -0.834000       15.9994           0
     27695 TIP3     4632     TIP3     H1       HT       0.417000       1.00800           0
     27696 TIP3     4632     TIP3     H2       HT       0.417000       1.00800           0
     27697 TIP3     4633     TIP3     OH2      OT      -0.834000       15.9994           0
     27698 TIP3     4633     TIP3     H1       HT       0.417000       1.00800           0
     27699 TIP3     4633     TIP3     H2       HT       0.417000       1.00800           0
     27700 TIP3     4634     TIP3     OH2      OT      -0.834000       15.9994           0
     27701 TIP3     4634     TIP3     H1       HT       0.417000       1.00800           0
     27702 TIP3     4634     TIP3     H2       HT       0.417000       1.00800           0
     27703 TIP3     4635     TIP3     OH2      OT      -0.834000       15.9994           0
     27704 TIP3     4635     TIP3     H1       HT       0.417000       1.00800           0
     27705 TIP3     4635     TIP3     H2       HT       0.417000       1.00800           0
     27706 TIP3     4636     TIP3     OH2      OT      -0.834000       15.9994           0
     27707 TIP3     4636     TIP3     H1       HT       0.417000       1.00800           0
     27708 TIP3     4636     TIP3     H2       HT       0.417000       1.00800           0
     27709 TIP3     4637     TIP3     OH2      OT      -0.834000       15.9994           0
     27710 TIP3     4637     TIP3     H1       HT       0.417000       1.00800           0
     27711 TIP3     4637     TIP3     H2       HT       0.417000       1.00800           0
     27712 TIP3     4638     TIP3     OH2      OT      -0.834000       15.9994           0
     27713 TIP3     4638     TIP3     H1       HT       0.417000       1.00800           0
     27714 TIP3     4638     TIP3     H2       HT       0.417000       1.00800           0
     27715 TIP3     4639     TIP3     OH2      OT      -0.834000       15.9994           0
     27716 TIP3     4639     TIP3     H1       HT       0.417000       1.00800           0
     27717 TIP3     4639     TIP3     H2       HT       0.417000       1.00800           0
     27718 TIP3     4640     TIP3     OH2      OT      -0.834000       15.9994           0
     27719 TIP3     4640     TIP3     H1       HT       0.417000       1.00800           0
     27720 TIP3     4640     TIP3     H2       HT       0.417000       1.00800           0
     27721 TIP3     4641     TIP3     OH2      OT      -0.834000       15.9994           0
     27722 TIP3     4641     TIP3     H1       HT       0.417000       1.00800           0
     27723 TIP3     4641     TIP3     H2       HT       0.417000       1.00800           0
     27724 TIP3     4642     TIP3     OH2      OT      -0.834000       15.9994           0
     27725 TIP3     4642     TIP3     H1       HT       0.417000       1.00800           0
     27726 TIP3     4642     TIP3     H2       HT       0.417000       1.00800           0
     27727 TIP3     4643     TIP3     OH2      OT      -0.834000       15.9994           0
     27728 TIP3     4643     TIP3     H1       HT       0.417000       1.00800           0
     27729 TIP3     4643     TIP3     H2       HT       0.417000       1.00800           0
     27730 TIP3     4644     TIP3     OH2      OT      -0.834000       15.9994           0
     27731 TIP3     4644     TIP3     H1       HT       0.417000       1.00800           0
     27732 TIP3     4644     TIP3     H2       HT       0.417000       1.00800           0
     27733 TIP3     4645     TIP3     OH2      OT      -0.834000       15.9994           0
     27734 TIP3     4645     TIP3     H1       HT       0.417000       1.00800           0
     27735 TIP3     4645     TIP3     H2       HT       0.417000       1.00800           0
     27736 TIP3     4646     TIP3     OH2      OT      -0.834000       15.9994           0
     27737 TIP3     4646     TIP3     H1       HT       0.417000       1.00800           0
     27738 TIP3     4646     TIP3     H2       HT       0.417000       1.00800           0
     27739 TIP3     4647     TIP3     OH2      OT      -0.834000       15.9994           0
     27740 TIP3     4647     TIP3     H1       HT       0.417000       1.00800           0
     27741 TIP3     4647     TIP3     H2       HT       0.417000       1.00800           0
     27742 TIP3     4648     TIP3     OH2      OT      -0.834000       15.9994           0
     27743 TIP3     4648     TIP3     H1       HT       0.417000       1.00800           0
     27744 TIP3     4648     TIP3     H2       HT       0.417000       1.00800           0
     27745 TIP3     4649     TIP3     OH2      OT      -0.834000       15.9994           0
     27746 TIP3     4649     TIP3     H1       HT       0.417000       1.00800           0
     27747 TIP3     4649     TIP3     H2       HT       0.417000       1.00800           0
     27748 TIP3     4650     TIP3     OH2      OT      -0.834000       15.9994           0
     27749 TIP3     4650     TIP3     H1       HT       0.417000       1.00800           0
     27750 TIP3     4650     TIP3     H2       HT       0.417000       1.00800           0
     27751 TIP3     4651     TIP3     OH2      OT      -0.834000       15.9994           0
     27752 TIP3     4651     TIP3     H1       HT       0.417000       1.00800           0
     27753 TIP3     4651     TIP3     H2       HT       0.417000       1.00800           0
     27754 TIP3     4652     TIP3     OH2      OT      -0.834000       15.9994           0
     27755 TIP3     4652     TIP3     H1       HT       0.417000       1.00800           0
     27756 TIP3     4652     TIP3     H2       HT       0.417000       1.00800           0
     27757 TIP3     4653     TIP3     OH2      OT      -0.834000       15.9994           0
     27758 TIP3     4653     TIP3     H1       HT       0.417000       1.00800           0
     27759 TIP3     4653     TIP3     H2       HT       0.417000       1.00800           0
     27760 TIP3     4654     TIP3     OH2      OT      -0.834000       15.9994           0
     27761 TIP3     4654     TIP3     H1       HT       0.417000       1.00800           0
     27762 TIP3     4654     TIP3     H2       HT       0.417000       1.00800           0
     27763 TIP3     4655     TIP3     OH2      OT      -0.834000       15.9994           0
     27764 TIP3     4655     TIP3     H1       HT       0.417000       1.00800           0
     27765 TIP3     4655     TIP3     H2       HT       0.417000       1.00800           0
     27766 TIP3     4656     TIP3     OH2      OT      -0.834000       15.9994           0
     27767 TIP3     4656     TIP3     H1       HT       0.417000       1.00800           0
     27768 TIP3     4656     TIP3     H2       HT       0.417000       1.00800           0
     27769 TIP3     4657     TIP3     OH2      OT      -0.834000       15.9994           0
     27770 TIP3     4657     TIP3     H1       HT       0.417000       1.00800           0
     27771 TIP3     4657     TIP3     H2       HT       0.417000       1.00800           0
     27772 TIP3     4658     TIP3     OH2      OT      -0.834000       15.9994           0
     27773 TIP3     4658     TIP3     H1       HT       0.417000       1.00800           0
     27774 TIP3     4658     TIP3     H2       HT       0.417000       1.00800           0
     27775 TIP3     4659     TIP3     OH2      OT      -0.834000       15.9994           0
     27776 TIP3     4659     TIP3     H1       HT       0.417000       1.00800           0
     27777 TIP3     4659     TIP3     H2       HT       0.417000       1.00800           0
     27778 TIP3     4660     TIP3     OH2      OT      -0.834000       15.9994           0
     27779 TIP3     4660     TIP3     H1       HT       0.417000       1.00800           0
     27780 TIP3     4660     TIP3     H2       HT       0.417000       1.00800           0
     27781 TIP3     4661     TIP3     OH2      OT      -0.834000       15.9994           0
     27782 TIP3     4661     TIP3     H1       HT       0.417000       1.00800           0
     27783 TIP3     4661     TIP3     H2       HT       0.417000       1.00800           0
     27784 TIP3     4662     TIP3     OH2      OT      -0.834000       15.9994           0
     27785 TIP3     4662     TIP3     H1       HT       0.417000       1.00800           0
     27786 TIP3     4662     TIP3     H2       HT       0.417000       1.00800           0
     27787 TIP3     4663     TIP3     OH2      OT      -0.834000       15.9994           0
     27788 TIP3     4663     TIP3     H1       HT       0.417000       1.00800           0
     27789 TIP3     4663     TIP3     H2       HT       0.417000       1.00800           0
     27790 TIP3     4664     TIP3     OH2      OT      -0.834000       15.9994           0
     27791 TIP3     4664     TIP3     H1       HT       0.417000       1.00800           0
     27792 TIP3     4664     TIP3     H2       HT       0.417000       1.00800           0
     27793 TIP3     4665     TIP3     OH2      OT      -0.834000       15.9994           0
     27794 TIP3     4665     TIP3     H1       HT       0.417000       1.00800           0
     27795 TIP3     4665     TIP3     H2       HT       0.417000       1.00800           0
     27796 TIP3     4666     TIP3     OH2      OT      -0.834000       15.9994           0
     27797 TIP3     4666     TIP3     H1       HT       0.417000       1.00800           0
     27798 TIP3     4666     TIP3     H2       HT       0.417000       1.00800           0
     27799 TIP3     4667     TIP3     OH2      OT      -0.834000       15.9994           0
     27800 TIP3     4667     TIP3     H1       HT       0.417000       1.00800           0
     27801 TIP3     4667     TIP3     H2       HT       0.417000       1.00800           0
     27802 TIP3     4668     TIP3     OH2      OT      -0.834000       15.9994           0
     27803 TIP3     4668     TIP3     H1       HT       0.417000       1.00800           0
     27804 TIP3     4668     TIP3     H2       HT       0.417000       1.00800           0
     27805 TIP3     4669     TIP3     OH2      OT      -0.834000       15.9994           0
     27806 TIP3     4669     TIP3     H1       HT       0.417000       1.00800           0
     27807 TIP3     4669     TIP3     H2       HT       0.417000       1.00800           0
     27808 TIP3     4670     TIP3     OH2      OT      -0.834000       15.9994           0
     27809 TIP3     4670     TIP3     H1       HT       0.417000       1.00800           0
     27810 TIP3     4670     TIP3     H2       HT       0.417000       1.00800           0
     27811 TIP3     4671     TIP3     OH2      OT      -0.834000       15.9994           0
     27812 TIP3     4671     TIP3     H1       HT       0.417000       1.00800           0
     27813 TIP3     4671     TIP3     H2       HT       0.417000       1.00800           0
     27814 TIP3     4672     TIP3     OH2      OT      -0.834000       15.9994           0
     27815 TIP3     4672     TIP3     H1       HT       0.417000       1.00800           0
     27816 TIP3     4672     TIP3     H2       HT       0.417000       1.00800           0
     27817 TIP3     4673     TIP3     OH2      OT      -0.834000       15.9994           0
     27818 TIP3     4673     TIP3     H1       HT       0.417000       1.00800           0
     27819 TIP3     4673     TIP3     H2       HT       0.417000       1.00800           0
     27820 TIP3     4674     TIP3     OH2      OT      -0.834000       15.9994           0
     27821 TIP3     4674     TIP3     H1       HT       0.417000       1.00800           0
     27822 TIP3     4674     TIP3     H2       HT       0.417000       1.00800           0
     27823 TIP3     4675     TIP3     OH2      OT      -0.834000       15.9994           0
     27824 TIP3     4675     TIP3     H1       HT       0.417000       1.00800           0
     27825 TIP3     4675     TIP3     H2       HT       0.417000       1.00800           0
     27826 TIP3     4676     TIP3     OH2      OT      -0.834000       15.9994           0
     27827 TIP3     4676     TIP3     H1       HT       0.417000       1.00800           0
     27828 TIP3     4676     TIP3     H2       HT       0.417000       1.00800           0
     27829 TIP3     4677     TIP3     OH2      OT      -0.834000       15.9994           0
     27830 TIP3     4677     TIP3     H1       HT       0.417000       1.00800           0
     27831 TIP3     4677     TIP3     H2       HT       0.417000       1.00800           0
     27832 TIP3     4678     TIP3     OH2      OT      -0.834000       15.9994           0
     27833 TIP3     4678     TIP3     H1       HT       0.417000       1.00800           0
     27834 TIP3     4678     TIP3     H2       HT       0.417000       1.00800           0
     27835 TIP3     4679     TIP3     OH2      OT      -0.834000       15.9994           0
     27836 TIP3     4679     TIP3     H1       HT       0.417000       1.00800           0
     27837 TIP3     4679     TIP3     H2       HT       0.417000       1.00800           0
     27838 TIP3     4680     TIP3     OH2      OT      -0.834000       15.9994           0
     27839 TIP3     4680     TIP3     H1       HT       0.417000       1.00800           0
     27840 TIP3     4680     TIP3     H2       HT       0.417000       1.00800           0
     27841 TIP3     4681     TIP3     OH2      OT      -0.834000       15.9994           0
     27842 TIP3     4681     TIP3     H1       HT       0.417000       1.00800           0
     27843 TIP3     4681     TIP3     H2       HT       0.417000       1.00800           0
     27844 TIP3     4682     TIP3     OH2      OT      -0.834000       15.9994           0
     27845 TIP3     4682     TIP3     H1       HT       0.417000       1.00800           0
     27846 TIP3     4682     TIP3     H2       HT       0.417000       1.00800           0
     27847 TIP3     4683     TIP3     OH2      OT      -0.834000       15.9994           0
     27848 TIP3     4683     TIP3     H1       HT       0.417000       1.00800           0
     27849 TIP3     4683     TIP3     H2       HT       0.417000       1.00800           0
     27850 TIP3     4684     TIP3     OH2      OT      -0.834000       15.9994           0
     27851 TIP3     4684     TIP3     H1       HT       0.417000       1.00800           0
     27852 TIP3     4684     TIP3     H2       HT       0.417000       1.00800           0
     27853 TIP3     4685     TIP3     OH2      OT      -0.834000       15.9994           0
     27854 TIP3     4685     TIP3     H1       HT       0.417000       1.00800           0
     27855 TIP3     4685     TIP3     H2       HT       0.417000       1.00800           0
     27856 TIP3     4686     TIP3     OH2      OT      -0.834000       15.9994           0
     27857 TIP3     4686     TIP3     H1       HT       0.417000       1.00800           0
     27858 TIP3     4686     TIP3     H2       HT       0.417000       1.00800           0
     27859 TIP3     4687     TIP3     OH2      OT      -0.834000       15.9994           0
     27860 TIP3     4687     TIP3     H1       HT       0.417000       1.00800           0
     27861 TIP3     4687     TIP3     H2       HT       0.417000       1.00800           0
     27862 TIP3     4688     TIP3     OH2      OT      -0.834000       15.9994           0
     27863 TIP3     4688     TIP3     H1       HT       0.417000       1.00800           0
     27864 TIP3     4688     TIP3     H2       HT       0.417000       1.00800           0
     27865 TIP3     4689     TIP3     OH2      OT      -0.834000       15.9994           0
     27866 TIP3     4689     TIP3     H1       HT       0.417000       1.00800           0
     27867 TIP3     4689     TIP3     H2       HT       0.417000       1.00800           0
     27868 TIP3     4690     TIP3     OH2      OT      -0.834000       15.9994           0
     27869 TIP3     4690     TIP3     H1       HT       0.417000       1.00800           0
     27870 TIP3     4690     TIP3     H2       HT       0.417000       1.00800           0
     27871 TIP3     4691     TIP3     OH2      OT      -0.834000       15.9994           0
     27872 TIP3     4691     TIP3     H1       HT       0.417000       1.00800           0
     27873 TIP3     4691     TIP3     H2       HT       0.417000       1.00800           0
     27874 TIP3     4692     TIP3     OH2      OT      -0.834000       15.9994           0
     27875 TIP3     4692     TIP3     H1       HT       0.417000       1.00800           0
     27876 TIP3     4692     TIP3     H2       HT       0.417000       1.00800           0
     27877 TIP3     4693     TIP3     OH2      OT      -0.834000       15.9994           0
     27878 TIP3     4693     TIP3     H1       HT       0.417000       1.00800           0
     27879 TIP3     4693     TIP3     H2       HT       0.417000       1.00800           0
     27880 TIP3     4694     TIP3     OH2      OT      -0.834000       15.9994           0
     27881 TIP3     4694     TIP3     H1       HT       0.417000       1.00800           0
     27882 TIP3     4694     TIP3     H2       HT       0.417000       1.00800           0
     27883 TIP3     4695     TIP3     OH2      OT      -0.834000       15.9994           0
     27884 TIP3     4695     TIP3     H1       HT       0.417000       1.00800           0
     27885 TIP3     4695     TIP3     H2       HT       0.417000       1.00800           0
     27886 TIP3     4696     TIP3     OH2      OT      -0.834000       15.9994           0
     27887 TIP3     4696     TIP3     H1       HT       0.417000       1.00800           0
     27888 TIP3     4696     TIP3     H2       HT       0.417000       1.00800           0
     27889 TIP3     4697     TIP3     OH2      OT      -0.834000       15.9994           0
     27890 TIP3     4697     TIP3     H1       HT       0.417000       1.00800           0
     27891 TIP3     4697     TIP3     H2       HT       0.417000       1.00800           0
     27892 TIP3     4698     TIP3     OH2      OT      -0.834000       15.9994           0
     27893 TIP3     4698     TIP3     H1       HT       0.417000       1.00800           0
     27894 TIP3     4698     TIP3     H2       HT       0.417000       1.00800           0
     27895 TIP3     4699     TIP3     OH2      OT      -0.834000       15.9994           0
     27896 TIP3     4699     TIP3     H1       HT       0.417000       1.00800           0
     27897 TIP3     4699     TIP3     H2       HT       0.417000       1.00800           0
     27898 TIP3     4700     TIP3     OH2      OT      -0.834000       15.9994           0
     27899 TIP3     4700     TIP3     H1       HT       0.417000       1.00800           0
     27900 TIP3     4700     TIP3     H2       HT       0.417000       1.00800           0
     27901 TIP3     4701     TIP3     OH2      OT      -0.834000       15.9994           0
     27902 TIP3     4701     TIP3     H1       HT       0.417000       1.00800           0
     27903 TIP3     4701     TIP3     H2       HT       0.417000       1.00800           0
     27904 TIP3     4702     TIP3     OH2      OT      -0.834000       15.9994           0
     27905 TIP3     4702     TIP3     H1       HT       0.417000       1.00800           0
     27906 TIP3     4702     TIP3     H2       HT       0.417000       1.00800           0
     27907 TIP3     4703     TIP3     OH2      OT      -0.834000       15.9994           0
     27908 TIP3     4703     TIP3     H1       HT       0.417000       1.00800           0
     27909 TIP3     4703     TIP3     H2       HT       0.417000       1.00800           0
     27910 TIP3     4704     TIP3     OH2      OT      -0.834000       15.9994           0
     27911 TIP3     4704     TIP3     H1       HT       0.417000       1.00800           0
     27912 TIP3     4704     TIP3     H2       HT       0.417000       1.00800           0
     27913 TIP3     4705     TIP3     OH2      OT      -0.834000       15.9994           0
     27914 TIP3     4705     TIP3     H1       HT       0.417000       1.00800           0
     27915 TIP3     4705     TIP3     H2       HT       0.417000       1.00800           0
     27916 TIP3     4706     TIP3     OH2      OT      -0.834000       15.9994           0
     27917 TIP3     4706     TIP3     H1       HT       0.417000       1.00800           0
     27918 TIP3     4706     TIP3     H2       HT       0.417000       1.00800           0
     27919 TIP3     4707     TIP3     OH2      OT      -0.834000       15.9994           0
     27920 TIP3     4707     TIP3     H1       HT       0.417000       1.00800           0
     27921 TIP3     4707     TIP3     H2       HT       0.417000       1.00800           0
     27922 TIP3     4708     TIP3     OH2      OT      -0.834000       15.9994           0
     27923 TIP3     4708     TIP3     H1       HT       0.417000       1.00800           0
     27924 TIP3     4708     TIP3     H2       HT       0.417000       1.00800           0
     27925 TIP3     4709     TIP3     OH2      OT      -0.834000       15.9994           0
     27926 TIP3     4709     TIP3     H1       HT       0.417000       1.00800           0
     27927 TIP3     4709     TIP3     H2       HT       0.417000       1.00800           0
     27928 TIP3     4710     TIP3     OH2      OT      -0.834000       15.9994           0
     27929 TIP3     4710     TIP3     H1       HT       0.417000       1.00800           0
     27930 TIP3     4710     TIP3     H2       HT       0.417000       1.00800           0
     27931 TIP3     4711     TIP3     OH2      OT      -0.834000       15.9994           0
     27932 TIP3     4711     TIP3     H1       HT       0.417000       1.00800           0
     27933 TIP3     4711     TIP3     H2       HT       0.417000       1.00800           0
     27934 TIP3     4712     TIP3     OH2      OT      -0.834000       15.9994           0
     27935 TIP3     4712     TIP3     H1       HT       0.417000       1.00800           0
     27936 TIP3     4712     TIP3     H2       HT       0.417000       1.00800           0
     27937 TIP3     4713     TIP3     OH2      OT      -0.834000       15.9994           0
     27938 TIP3     4713     TIP3     H1       HT       0.417000       1.00800           0
     27939 TIP3     4713     TIP3     H2       HT       0.417000       1.00800           0
     27940 TIP3     4714     TIP3     OH2      OT      -0.834000       15.9994           0
     27941 TIP3     4714     TIP3     H1       HT       0.417000       1.00800           0
     27942 TIP3     4714     TIP3     H2       HT       0.417000       1.00800           0
     27943 TIP3     4715     TIP3     OH2      OT      -0.834000       15.9994           0
     27944 TIP3     4715     TIP3     H1       HT       0.417000       1.00800           0
     27945 TIP3     4715     TIP3     H2       HT       0.417000       1.00800           0
     27946 TIP3     4716     TIP3     OH2      OT      -0.834000       15.9994           0
     27947 TIP3     4716     TIP3     H1       HT       0.417000       1.00800           0
     27948 TIP3     4716     TIP3     H2       HT       0.417000       1.00800           0
     27949 TIP3     4717     TIP3     OH2      OT      -0.834000       15.9994           0
     27950 TIP3     4717     TIP3     H1       HT       0.417000       1.00800           0
     27951 TIP3     4717     TIP3     H2       HT       0.417000       1.00800           0
     27952 TIP3     4718     TIP3     OH2      OT      -0.834000       15.9994           0
     27953 TIP3     4718     TIP3     H1       HT       0.417000       1.00800           0
     27954 TIP3     4718     TIP3     H2       HT       0.417000       1.00800           0
     27955 TIP3     4719     TIP3     OH2      OT      -0.834000       15.9994           0
     27956 TIP3     4719     TIP3     H1       HT       0.417000       1.00800           0
     27957 TIP3     4719     TIP3     H2       HT       0.417000       1.00800           0
     27958 TIP3     4720     TIP3     OH2      OT      -0.834000       15.9994           0
     27959 TIP3     4720     TIP3     H1       HT       0.417000       1.00800           0
     27960 TIP3     4720     TIP3     H2       HT       0.417000       1.00800           0
     27961 TIP3     4721     TIP3     OH2      OT      -0.834000       15.9994           0
     27962 TIP3     4721     TIP3     H1       HT       0.417000       1.00800           0
     27963 TIP3     4721     TIP3     H2       HT       0.417000       1.00800           0
     27964 TIP3     4722     TIP3     OH2      OT      -0.834000       15.9994           0
     27965 TIP3     4722     TIP3     H1       HT       0.417000       1.00800           0
     27966 TIP3     4722     TIP3     H2       HT       0.417000       1.00800           0
     27967 TIP3     4723     TIP3     OH2      OT      -0.834000       15.9994           0
     27968 TIP3     4723     TIP3     H1       HT       0.417000       1.00800           0
     27969 TIP3     4723     TIP3     H2       HT       0.417000       1.00800           0
     27970 TIP3     4724     TIP3     OH2      OT      -0.834000       15.9994           0
     27971 TIP3     4724     TIP3     H1       HT       0.417000       1.00800           0
     27972 TIP3     4724     TIP3     H2       HT       0.417000       1.00800           0
     27973 TIP3     4725     TIP3     OH2      OT      -0.834000       15.9994           0
     27974 TIP3     4725     TIP3     H1       HT       0.417000       1.00800           0
     27975 TIP3     4725     TIP3     H2       HT       0.417000       1.00800           0
     27976 TIP3     4726     TIP3     OH2      OT      -0.834000       15.9994           0
     27977 TIP3     4726     TIP3     H1       HT       0.417000       1.00800           0
     27978 TIP3     4726     TIP3     H2       HT       0.417000       1.00800           0
     27979 TIP3     4727     TIP3     OH2      OT      -0.834000       15.9994           0
     27980 TIP3     4727     TIP3     H1       HT       0.417000       1.00800           0
     27981 TIP3     4727     TIP3     H2       HT       0.417000       1.00800           0
     27982 TIP3     4728     TIP3     OH2      OT      -0.834000       15.9994           0
     27983 TIP3     4728     TIP3     H1       HT       0.417000       1.00800           0
     27984 TIP3     4728     TIP3     H2       HT       0.417000       1.00800           0
     27985 TIP3     4729     TIP3     OH2      OT      -0.834000       15.9994           0
     27986 TIP3     4729     TIP3     H1       HT       0.417000       1.00800           0
     27987 TIP3     4729     TIP3     H2       HT       0.417000       1.00800           0
     27988 TIP3     4730     TIP3     OH2      OT      -0.834000       15.9994           0
     27989 TIP3     4730     TIP3     H1       HT       0.417000       1.00800           0
     27990 TIP3     4730     TIP3     H2       HT       0.417000       1.00800           0
     27991 TIP3     4731     TIP3     OH2      OT      -0.834000       15.9994           0
     27992 TIP3     4731     TIP3     H1       HT       0.417000       1.00800           0
     27993 TIP3     4731     TIP3     H2       HT       0.417000       1.00800           0
     27994 TIP3     4732     TIP3     OH2      OT      -0.834000       15.9994           0
     27995 TIP3     4732     TIP3     H1       HT       0.417000       1.00800           0
     27996 TIP3     4732     TIP3     H2       HT       0.417000       1.00800           0
     27997 TIP3     4733     TIP3     OH2      OT      -0.834000       15.9994           0
     27998 TIP3     4733     TIP3     H1       HT       0.417000       1.00800           0
     27999 TIP3     4733     TIP3     H2       HT       0.417000       1.00800           0
     28000 TIP3     4734     TIP3     OH2      OT      -0.834000       15.9994           0
     28001 TIP3     4734     TIP3     H1       HT       0.417000       1.00800           0
     28002 TIP3     4734     TIP3     H2       HT       0.417000       1.00800           0
     28003 TIP3     4735     TIP3     OH2      OT      -0.834000       15.9994           0
     28004 TIP3     4735     TIP3     H1       HT       0.417000       1.00800           0
     28005 TIP3     4735     TIP3     H2       HT       0.417000       1.00800           0
     28006 TIP3     4736     TIP3     OH2      OT      -0.834000       15.9994           0
     28007 TIP3     4736     TIP3     H1       HT       0.417000       1.00800           0
     28008 TIP3     4736     TIP3     H2       HT       0.417000       1.00800           0
     28009 TIP3     4737     TIP3     OH2      OT      -0.834000       15.9994           0
     28010 TIP3     4737     TIP3     H1       HT       0.417000       1.00800           0
     28011 TIP3     4737     TIP3     H2       HT       0.417000       1.00800           0
     28012 TIP3     4738     TIP3     OH2      OT      -0.834000       15.9994           0
     28013 TIP3     4738     TIP3     H1       HT       0.417000       1.00800           0
     28014 TIP3     4738     TIP3     H2       HT       0.417000       1.00800           0
     28015 TIP3     4739     TIP3     OH2      OT      -0.834000       15.9994           0
     28016 TIP3     4739     TIP3     H1       HT       0.417000       1.00800           0
     28017 TIP3     4739     TIP3     H2       HT       0.417000       1.00800           0
     28018 TIP3     4740     TIP3     OH2      OT      -0.834000       15.9994           0
     28019 TIP3     4740     TIP3     H1       HT       0.417000       1.00800           0
     28020 TIP3     4740     TIP3     H2       HT       0.417000       1.00800           0
     28021 TIP3     4741     TIP3     OH2      OT      -0.834000       15.9994           0
     28022 TIP3     4741     TIP3     H1       HT       0.417000       1.00800           0
     28023 TIP3     4741     TIP3     H2       HT       0.417000       1.00800           0
     28024 TIP3     4742     TIP3     OH2      OT      -0.834000       15.9994           0
     28025 TIP3     4742     TIP3     H1       HT       0.417000       1.00800           0
     28026 TIP3     4742     TIP3     H2       HT       0.417000       1.00800           0
     28027 TIP3     4743     TIP3     OH2      OT      -0.834000       15.9994           0
     28028 TIP3     4743     TIP3     H1       HT       0.417000       1.00800           0
     28029 TIP3     4743     TIP3     H2       HT       0.417000       1.00800           0
     28030 TIP3     4744     TIP3     OH2      OT      -0.834000       15.9994           0
     28031 TIP3     4744     TIP3     H1       HT       0.417000       1.00800           0
     28032 TIP3     4744     TIP3     H2       HT       0.417000       1.00800           0
     28033 TIP3     4745     TIP3     OH2      OT      -0.834000       15.9994           0
     28034 TIP3     4745     TIP3     H1       HT       0.417000       1.00800           0
     28035 TIP3     4745     TIP3     H2       HT       0.417000       1.00800           0
     28036 TIP3     4746     TIP3     OH2      OT      -0.834000       15.9994           0
     28037 TIP3     4746     TIP3     H1       HT       0.417000       1.00800           0
     28038 TIP3     4746     TIP3     H2       HT       0.417000       1.00800           0
     28039 TIP3     4747     TIP3     OH2      OT      -0.834000       15.9994           0
     28040 TIP3     4747     TIP3     H1       HT       0.417000       1.00800           0
     28041 TIP3     4747     TIP3     H2       HT       0.417000       1.00800           0
     28042 TIP3     4748     TIP3     OH2      OT      -0.834000       15.9994           0
     28043 TIP3     4748     TIP3     H1       HT       0.417000       1.00800           0
     28044 TIP3     4748     TIP3     H2       HT       0.417000       1.00800           0
     28045 TIP3     4749     TIP3     OH2      OT      -0.834000       15.9994           0
     28046 TIP3     4749     TIP3     H1       HT       0.417000       1.00800           0
     28047 TIP3     4749     TIP3     H2       HT       0.417000       1.00800           0
     28048 TIP3     4750     TIP3     OH2      OT      -0.834000       15.9994           0
     28049 TIP3     4750     TIP3     H1       HT       0.417000       1.00800           0
     28050 TIP3     4750     TIP3     H2       HT       0.417000       1.00800           0
     28051 TIP3     4751     TIP3     OH2      OT      -0.834000       15.9994           0
     28052 TIP3     4751     TIP3     H1       HT       0.417000       1.00800           0
     28053 TIP3     4751     TIP3     H2       HT       0.417000       1.00800           0
     28054 TIP3     4752     TIP3     OH2      OT      -0.834000       15.9994           0
     28055 TIP3     4752     TIP3     H1       HT       0.417000       1.00800           0
     28056 TIP3     4752     TIP3     H2       HT       0.417000       1.00800           0
     28057 TIP3     4753     TIP3     OH2      OT      -0.834000       15.9994           0
     28058 TIP3     4753     TIP3     H1       HT       0.417000       1.00800           0
     28059 TIP3     4753     TIP3     H2       HT       0.417000       1.00800           0
     28060 TIP3     4754     TIP3     OH2      OT      -0.834000       15.9994           0
     28061 TIP3     4754     TIP3     H1       HT       0.417000       1.00800           0
     28062 TIP3     4754     TIP3     H2       HT       0.417000       1.00800           0
     28063 TIP3     4755     TIP3     OH2      OT      -0.834000       15.9994           0
     28064 TIP3     4755     TIP3     H1       HT       0.417000       1.00800           0
     28065 TIP3     4755     TIP3     H2       HT       0.417000       1.00800           0
     28066 TIP3     4756     TIP3     OH2      OT      -0.834000       15.9994           0
     28067 TIP3     4756     TIP3     H1       HT       0.417000       1.00800           0
     28068 TIP3     4756     TIP3     H2       HT       0.417000       1.00800           0
     28069 TIP3     4757     TIP3     OH2      OT      -0.834000       15.9994           0
     28070 TIP3     4757     TIP3     H1       HT       0.417000       1.00800           0
     28071 TIP3     4757     TIP3     H2       HT       0.417000       1.00800           0
     28072 TIP3     4758     TIP3     OH2      OT      -0.834000       15.9994           0
     28073 TIP3     4758     TIP3     H1       HT       0.417000       1.00800           0
     28074 TIP3     4758     TIP3     H2       HT       0.417000       1.00800           0
     28075 TIP3     4759     TIP3     OH2      OT      -0.834000       15.9994           0
     28076 TIP3     4759     TIP3     H1       HT       0.417000       1.00800           0
     28077 TIP3     4759     TIP3     H2       HT       0.417000       1.00800           0
     28078 TIP3     4760     TIP3     OH2      OT      -0.834000       15.9994           0
     28079 TIP3     4760     TIP3     H1       HT       0.417000       1.00800           0
     28080 TIP3     4760     TIP3     H2       HT       0.417000       1.00800           0
     28081 TIP3     4761     TIP3     OH2      OT      -0.834000       15.9994           0
     28082 TIP3     4761     TIP3     H1       HT       0.417000       1.00800           0
     28083 TIP3     4761     TIP3     H2       HT       0.417000       1.00800           0
     28084 TIP3     4762     TIP3     OH2      OT      -0.834000       15.9994           0
     28085 TIP3     4762     TIP3     H1       HT       0.417000       1.00800           0
     28086 TIP3     4762     TIP3     H2       HT       0.417000       1.00800           0
     28087 TIP3     4763     TIP3     OH2      OT      -0.834000       15.9994           0
     28088 TIP3     4763     TIP3     H1       HT       0.417000       1.00800           0
     28089 TIP3     4763     TIP3     H2       HT       0.417000       1.00800           0
     28090 TIP3     4764     TIP3     OH2      OT      -0.834000       15.9994           0
     28091 TIP3     4764     TIP3     H1       HT       0.417000       1.00800           0
     28092 TIP3     4764     TIP3     H2       HT       0.417000       1.00800           0
     28093 TIP3     4765     TIP3     OH2      OT      -0.834000       15.9994           0
     28094 TIP3     4765     TIP3     H1       HT       0.417000       1.00800           0
     28095 TIP3     4765     TIP3     H2       HT       0.417000       1.00800           0
     28096 TIP3     4766     TIP3     OH2      OT      -0.834000       15.9994           0
     28097 TIP3     4766     TIP3     H1       HT       0.417000       1.00800           0
     28098 TIP3     4766     TIP3     H2       HT       0.417000       1.00800           0
     28099 TIP3     4767     TIP3     OH2      OT      -0.834000       15.9994           0
     28100 TIP3     4767     TIP3     H1       HT       0.417000       1.00800           0
     28101 TIP3     4767     TIP3     H2       HT       0.417000       1.00800           0
     28102 TIP3     4768     TIP3     OH2      OT      -0.834000       15.9994           0
     28103 TIP3     4768     TIP3     H1       HT       0.417000       1.00800           0
     28104 TIP3     4768     TIP3     H2       HT       0.417000       1.00800           0
     28105 TIP3     4769     TIP3     OH2      OT      -0.834000       15.9994           0
     28106 TIP3     4769     TIP3     H1       HT       0.417000       1.00800           0
     28107 TIP3     4769     TIP3     H2       HT       0.417000       1.00800           0
     28108 TIP3     4770     TIP3     OH2      OT      -0.834000       15.9994           0
     28109 TIP3     4770     TIP3     H1       HT       0.417000       1.00800           0
     28110 TIP3     4770     TIP3     H2       HT       0.417000       1.00800           0
     28111 TIP3     4771     TIP3     OH2      OT      -0.834000       15.9994           0
     28112 TIP3     4771     TIP3     H1       HT       0.417000       1.00800           0
     28113 TIP3     4771     TIP3     H2       HT       0.417000       1.00800           0
     28114 TIP3     4772     TIP3     OH2      OT      -0.834000       15.9994           0
     28115 TIP3     4772     TIP3     H1       HT       0.417000       1.00800           0
     28116 TIP3     4772     TIP3     H2       HT       0.417000       1.00800           0
     28117 TIP3     4773     TIP3     OH2      OT      -0.834000       15.9994           0
     28118 TIP3     4773     TIP3     H1       HT       0.417000       1.00800           0
     28119 TIP3     4773     TIP3     H2       HT       0.417000       1.00800           0
     28120 TIP3     4774     TIP3     OH2      OT      -0.834000       15.9994           0
     28121 TIP3     4774     TIP3     H1       HT       0.417000       1.00800           0
     28122 TIP3     4774     TIP3     H2       HT       0.417000       1.00800           0
     28123 TIP3     4775     TIP3     OH2      OT      -0.834000       15.9994           0
     28124 TIP3     4775     TIP3     H1       HT       0.417000       1.00800           0
     28125 TIP3     4775     TIP3     H2       HT       0.417000       1.00800           0
     28126 TIP3     4776     TIP3     OH2      OT      -0.834000       15.9994           0
     28127 TIP3     4776     TIP3     H1       HT       0.417000       1.00800           0
     28128 TIP3     4776     TIP3     H2       HT       0.417000       1.00800           0
     28129 TIP3     4777     TIP3     OH2      OT      -0.834000       15.9994           0
     28130 TIP3     4777     TIP3     H1       HT       0.417000       1.00800           0
     28131 TIP3     4777     TIP3     H2       HT       0.417000       1.00800           0
     28132 TIP3     4778     TIP3     OH2      OT      -0.834000       15.9994           0
     28133 TIP3     4778     TIP3     H1       HT       0.417000       1.00800           0
     28134 TIP3     4778     TIP3     H2       HT       0.417000       1.00800           0
     28135 TIP3     4779     TIP3     OH2      OT      -0.834000       15.9994           0
     28136 TIP3     4779     TIP3     H1       HT       0.417000       1.00800           0
     28137 TIP3     4779     TIP3     H2       HT       0.417000       1.00800           0
     28138 TIP3     4780     TIP3     OH2      OT      -0.834000       15.9994           0
     28139 TIP3     4780     TIP3     H1       HT       0.417000       1.00800           0
     28140 TIP3     4780     TIP3     H2       HT       0.417000       1.00800           0
     28141 TIP3     4781     TIP3     OH2      OT      -0.834000       15.9994           0
     28142 TIP3     4781     TIP3     H1       HT       0.417000       1.00800           0
     28143 TIP3     4781     TIP3     H2       HT       0.417000       1.00800           0
     28144 TIP3     4782     TIP3     OH2      OT      -0.834000       15.9994           0
     28145 TIP3     4782     TIP3     H1       HT       0.417000       1.00800           0
     28146 TIP3     4782     TIP3     H2       HT       0.417000       1.00800           0
     28147 TIP3     4783     TIP3     OH2      OT      -0.834000       15.9994           0
     28148 TIP3     4783     TIP3     H1       HT       0.417000       1.00800           0
     28149 TIP3     4783     TIP3     H2       HT       0.417000       1.00800           0
     28150 TIP3     4784     TIP3     OH2      OT      -0.834000       15.9994           0
     28151 TIP3     4784     TIP3     H1       HT       0.417000       1.00800           0
     28152 TIP3     4784     TIP3     H2       HT       0.417000       1.00800           0
     28153 TIP3     4785     TIP3     OH2      OT      -0.834000       15.9994           0
     28154 TIP3     4785     TIP3     H1       HT       0.417000       1.00800           0
     28155 TIP3     4785     TIP3     H2       HT       0.417000       1.00800           0
     28156 TIP3     4786     TIP3     OH2      OT      -0.834000       15.9994           0
     28157 TIP3     4786     TIP3     H1       HT       0.417000       1.00800           0
     28158 TIP3     4786     TIP3     H2       HT       0.417000       1.00800           0
     28159 TIP3     4787     TIP3     OH2      OT      -0.834000       15.9994           0
     28160 TIP3     4787     TIP3     H1       HT       0.417000       1.00800           0
     28161 TIP3     4787     TIP3     H2       HT       0.417000       1.00800           0
     28162 TIP3     4788     TIP3     OH2      OT      -0.834000       15.9994           0
     28163 TIP3     4788     TIP3     H1       HT       0.417000       1.00800           0
     28164 TIP3     4788     TIP3     H2       HT       0.417000       1.00800           0
     28165 TIP3     4789     TIP3     OH2      OT      -0.834000       15.9994           0
     28166 TIP3     4789     TIP3     H1       HT       0.417000       1.00800           0
     28167 TIP3     4789     TIP3     H2       HT       0.417000       1.00800           0
     28168 TIP3     4790     TIP3     OH2      OT      -0.834000       15.9994           0
     28169 TIP3     4790     TIP3     H1       HT       0.417000       1.00800           0
     28170 TIP3     4790     TIP3     H2       HT       0.417000       1.00800           0
     28171 TIP3     4791     TIP3     OH2      OT      -0.834000       15.9994           0
     28172 TIP3     4791     TIP3     H1       HT       0.417000       1.00800           0
     28173 TIP3     4791     TIP3     H2       HT       0.417000       1.00800           0
     28174 TIP3     4792     TIP3     OH2      OT      -0.834000       15.9994           0
     28175 TIP3     4792     TIP3     H1       HT       0.417000       1.00800           0
     28176 TIP3     4792     TIP3     H2       HT       0.417000       1.00800           0
     28177 TIP3     4793     TIP3     OH2      OT      -0.834000       15.9994           0
     28178 TIP3     4793     TIP3     H1       HT       0.417000       1.00800           0
     28179 TIP3     4793     TIP3     H2       HT       0.417000       1.00800           0
     28180 TIP3     4794     TIP3     OH2      OT      -0.834000       15.9994           0
     28181 TIP3     4794     TIP3     H1       HT       0.417000       1.00800           0
     28182 TIP3     4794     TIP3     H2       HT       0.417000       1.00800           0
     28183 TIP3     4795     TIP3     OH2      OT      -0.834000       15.9994           0
     28184 TIP3     4795     TIP3     H1       HT       0.417000       1.00800           0
     28185 TIP3     4795     TIP3     H2       HT       0.417000       1.00800           0
     28186 TIP3     4796     TIP3     OH2      OT      -0.834000       15.9994           0
     28187 TIP3     4796     TIP3     H1       HT       0.417000       1.00800           0
     28188 TIP3     4796     TIP3     H2       HT       0.417000       1.00800           0
     28189 TIP3     4797     TIP3     OH2      OT      -0.834000       15.9994           0
     28190 TIP3     4797     TIP3     H1       HT       0.417000       1.00800           0
     28191 TIP3     4797     TIP3     H2       HT       0.417000       1.00800           0
     28192 TIP3     4798     TIP3     OH2      OT      -0.834000       15.9994           0
     28193 TIP3     4798     TIP3     H1       HT       0.417000       1.00800           0
     28194 TIP3     4798     TIP3     H2       HT       0.417000       1.00800           0
     28195 TIP3     4799     TIP3     OH2      OT      -0.834000       15.9994           0
     28196 TIP3     4799     TIP3     H1       HT       0.417000       1.00800           0
     28197 TIP3     4799     TIP3     H2       HT       0.417000       1.00800           0
     28198 TIP3     4800     TIP3     OH2      OT      -0.834000       15.9994           0
     28199 TIP3     4800     TIP3     H1       HT       0.417000       1.00800           0
     28200 TIP3     4800     TIP3     H2       HT       0.417000       1.00800           0
     28201 TIP3     4801     TIP3     OH2      OT      -0.834000       15.9994           0
     28202 TIP3     4801     TIP3     H1       HT       0.417000       1.00800           0
     28203 TIP3     4801     TIP3     H2       HT       0.417000       1.00800           0
     28204 TIP3     4802     TIP3     OH2      OT      -0.834000       15.9994           0
     28205 TIP3     4802     TIP3     H1       HT       0.417000       1.00800           0
     28206 TIP3     4802     TIP3     H2       HT       0.417000       1.00800           0
     28207 TIP3     4803     TIP3     OH2      OT      -0.834000       15.9994           0
     28208 TIP3     4803     TIP3     H1       HT       0.417000       1.00800           0
     28209 TIP3     4803     TIP3     H2       HT       0.417000       1.00800           0
     28210 TIP3     4804     TIP3     OH2      OT      -0.834000       15.9994           0
     28211 TIP3     4804     TIP3     H1       HT       0.417000       1.00800           0
     28212 TIP3     4804     TIP3     H2       HT       0.417000       1.00800           0
     28213 TIP3     4805     TIP3     OH2      OT      -0.834000       15.9994           0
     28214 TIP3     4805     TIP3     H1       HT       0.417000       1.00800           0
     28215 TIP3     4805     TIP3     H2       HT       0.417000       1.00800           0
     28216 TIP3     4806     TIP3     OH2      OT      -0.834000       15.9994           0
     28217 TIP3     4806     TIP3     H1       HT       0.417000       1.00800           0
     28218 TIP3     4806     TIP3     H2       HT       0.417000       1.00800           0
     28219 TIP3     4807     TIP3     OH2      OT      -0.834000       15.9994           0
     28220 TIP3     4807     TIP3     H1       HT       0.417000       1.00800           0
     28221 TIP3     4807     TIP3     H2       HT       0.417000       1.00800           0
     28222 TIP3     4808     TIP3     OH2      OT      -0.834000       15.9994           0
     28223 TIP3     4808     TIP3     H1       HT       0.417000       1.00800           0
     28224 TIP3     4808     TIP3     H2       HT       0.417000       1.00800           0
     28225 TIP3     4809     TIP3     OH2      OT      -0.834000       15.9994           0
     28226 TIP3     4809     TIP3     H1       HT       0.417000       1.00800           0
     28227 TIP3     4809     TIP3     H2       HT       0.417000       1.00800           0
     28228 TIP3     4810     TIP3     OH2      OT      -0.834000       15.9994           0
     28229 TIP3     4810     TIP3     H1       HT       0.417000       1.00800           0
     28230 TIP3     4810     TIP3     H2       HT       0.417000       1.00800           0
     28231 TIP3     4811     TIP3     OH2      OT      -0.834000       15.9994           0
     28232 TIP3     4811     TIP3     H1       HT       0.417000       1.00800           0
     28233 TIP3     4811     TIP3     H2       HT       0.417000       1.00800           0
     28234 TIP3     4812     TIP3     OH2      OT      -0.834000       15.9994           0
     28235 TIP3     4812     TIP3     H1       HT       0.417000       1.00800           0
     28236 TIP3     4812     TIP3     H2       HT       0.417000       1.00800           0
     28237 TIP3     4813     TIP3     OH2      OT      -0.834000       15.9994           0
     28238 TIP3     4813     TIP3     H1       HT       0.417000       1.00800           0
     28239 TIP3     4813     TIP3     H2       HT       0.417000       1.00800           0
     28240 TIP3     4814     TIP3     OH2      OT      -0.834000       15.9994           0
     28241 TIP3     4814     TIP3     H1       HT       0.417000       1.00800           0
     28242 TIP3     4814     TIP3     H2       HT       0.417000       1.00800           0
     28243 TIP3     4815     TIP3     OH2      OT      -0.834000       15.9994           0
     28244 TIP3     4815     TIP3     H1       HT       0.417000       1.00800           0
     28245 TIP3     4815     TIP3     H2       HT       0.417000       1.00800           0
     28246 TIP3     4816     TIP3     OH2      OT      -0.834000       15.9994           0
     28247 TIP3     4816     TIP3     H1       HT       0.417000       1.00800           0
     28248 TIP3     4816     TIP3     H2       HT       0.417000       1.00800           0
     28249 TIP3     4817     TIP3     OH2      OT      -0.834000       15.9994           0
     28250 TIP3     4817     TIP3     H1       HT       0.417000       1.00800           0
     28251 TIP3     4817     TIP3     H2       HT       0.417000       1.00800           0
     28252 TIP3     4818     TIP3     OH2      OT      -0.834000       15.9994           0
     28253 TIP3     4818     TIP3     H1       HT       0.417000       1.00800           0
     28254 TIP3     4818     TIP3     H2       HT       0.417000       1.00800           0
     28255 TIP3     4819     TIP3     OH2      OT      -0.834000       15.9994           0
     28256 TIP3     4819     TIP3     H1       HT       0.417000       1.00800           0
     28257 TIP3     4819     TIP3     H2       HT       0.417000       1.00800           0
     28258 TIP3     4820     TIP3     OH2      OT      -0.834000       15.9994           0
     28259 TIP3     4820     TIP3     H1       HT       0.417000       1.00800           0
     28260 TIP3     4820     TIP3     H2       HT       0.417000       1.00800           0
     28261 TIP3     4821     TIP3     OH2      OT      -0.834000       15.9994           0
     28262 TIP3     4821     TIP3     H1       HT       0.417000       1.00800           0
     28263 TIP3     4821     TIP3     H2       HT       0.417000       1.00800           0
     28264 TIP3     4822     TIP3     OH2      OT      -0.834000       15.9994           0
     28265 TIP3     4822     TIP3     H1       HT       0.417000       1.00800           0
     28266 TIP3     4822     TIP3     H2       HT       0.417000       1.00800           0
     28267 TIP3     4823     TIP3     OH2      OT      -0.834000       15.9994           0
     28268 TIP3     4823     TIP3     H1       HT       0.417000       1.00800           0
     28269 TIP3     4823     TIP3     H2       HT       0.417000       1.00800           0
     28270 TIP3     4824     TIP3     OH2      OT      -0.834000       15.9994           0
     28271 TIP3     4824     TIP3     H1       HT       0.417000       1.00800           0
     28272 TIP3     4824     TIP3     H2       HT       0.417000       1.00800           0
     28273 TIP3     4825     TIP3     OH2      OT      -0.834000       15.9994           0
     28274 TIP3     4825     TIP3     H1       HT       0.417000       1.00800           0
     28275 TIP3     4825     TIP3     H2       HT       0.417000       1.00800           0
     28276 TIP3     4826     TIP3     OH2      OT      -0.834000       15.9994           0
     28277 TIP3     4826     TIP3     H1       HT       0.417000       1.00800           0
     28278 TIP3     4826     TIP3     H2       HT       0.417000       1.00800           0
     28279 TIP3     4827     TIP3     OH2      OT      -0.834000       15.9994           0
     28280 TIP3     4827     TIP3     H1       HT       0.417000       1.00800           0
     28281 TIP3     4827     TIP3     H2       HT       0.417000       1.00800           0
     28282 TIP3     4828     TIP3     OH2      OT      -0.834000       15.9994           0
     28283 TIP3     4828     TIP3     H1       HT       0.417000       1.00800           0
     28284 TIP3     4828     TIP3     H2       HT       0.417000       1.00800           0
     28285 TIP3     4829     TIP3     OH2      OT      -0.834000       15.9994           0
     28286 TIP3     4829     TIP3     H1       HT       0.417000       1.00800           0
     28287 TIP3     4829     TIP3     H2       HT       0.417000       1.00800           0
     28288 TIP3     4830     TIP3     OH2      OT      -0.834000       15.9994           0
     28289 TIP3     4830     TIP3     H1       HT       0.417000       1.00800           0
     28290 TIP3     4830     TIP3     H2       HT       0.417000       1.00800           0
     28291 TIP3     4831     TIP3     OH2      OT      -0.834000       15.9994           0
     28292 TIP3     4831     TIP3     H1       HT       0.417000       1.00800           0
     28293 TIP3     4831     TIP3     H2       HT       0.417000       1.00800           0
     28294 TIP3     4832     TIP3     OH2      OT      -0.834000       15.9994           0
     28295 TIP3     4832     TIP3     H1       HT       0.417000       1.00800           0
     28296 TIP3     4832     TIP3     H2       HT       0.417000       1.00800           0
     28297 TIP3     4833     TIP3     OH2      OT      -0.834000       15.9994           0
     28298 TIP3     4833     TIP3     H1       HT       0.417000       1.00800           0
     28299 TIP3     4833     TIP3     H2       HT       0.417000       1.00800           0
     28300 TIP3     4834     TIP3     OH2      OT      -0.834000       15.9994           0
     28301 TIP3     4834     TIP3     H1       HT       0.417000       1.00800           0
     28302 TIP3     4834     TIP3     H2       HT       0.417000       1.00800           0
     28303 TIP3     4835     TIP3     OH2      OT      -0.834000       15.9994           0
     28304 TIP3     4835     TIP3     H1       HT       0.417000       1.00800           0
     28305 TIP3     4835     TIP3     H2       HT       0.417000       1.00800           0
     28306 TIP3     4836     TIP3     OH2      OT      -0.834000       15.9994           0
     28307 TIP3     4836     TIP3     H1       HT       0.417000       1.00800           0
     28308 TIP3     4836     TIP3     H2       HT       0.417000       1.00800           0
     28309 TIP3     4837     TIP3     OH2      OT      -0.834000       15.9994           0
     28310 TIP3     4837     TIP3     H1       HT       0.417000       1.00800           0
     28311 TIP3     4837     TIP3     H2       HT       0.417000       1.00800           0
     28312 TIP3     4838     TIP3     OH2      OT      -0.834000       15.9994           0
     28313 TIP3     4838     TIP3     H1       HT       0.417000       1.00800           0
     28314 TIP3     4838     TIP3     H2       HT       0.417000       1.00800           0
     28315 TIP3     4839     TIP3     OH2      OT      -0.834000       15.9994           0
     28316 TIP3     4839     TIP3     H1       HT       0.417000       1.00800           0
     28317 TIP3     4839     TIP3     H2       HT       0.417000       1.00800           0
     28318 TIP3     4840     TIP3     OH2      OT      -0.834000       15.9994           0
     28319 TIP3     4840     TIP3     H1       HT       0.417000       1.00800           0
     28320 TIP3     4840     TIP3     H2       HT       0.417000       1.00800           0
     28321 TIP3     4841     TIP3     OH2      OT      -0.834000       15.9994           0
     28322 TIP3     4841     TIP3     H1       HT       0.417000       1.00800           0
     28323 TIP3     4841     TIP3     H2       HT       0.417000       1.00800           0
     28324 TIP3     4842     TIP3     OH2      OT      -0.834000       15.9994           0
     28325 TIP3     4842     TIP3     H1       HT       0.417000       1.00800           0
     28326 TIP3     4842     TIP3     H2       HT       0.417000       1.00800           0
     28327 TIP3     4843     TIP3     OH2      OT      -0.834000       15.9994           0
     28328 TIP3     4843     TIP3     H1       HT       0.417000       1.00800           0
     28329 TIP3     4843     TIP3     H2       HT       0.417000       1.00800           0
     28330 TIP3     4844     TIP3     OH2      OT      -0.834000       15.9994           0
     28331 TIP3     4844     TIP3     H1       HT       0.417000       1.00800           0
     28332 TIP3     4844     TIP3     H2       HT       0.417000       1.00800           0
     28333 TIP3     4845     TIP3     OH2      OT      -0.834000       15.9994           0
     28334 TIP3     4845     TIP3     H1       HT       0.417000       1.00800           0
     28335 TIP3     4845     TIP3     H2       HT       0.417000       1.00800           0
     28336 TIP3     4846     TIP3     OH2      OT      -0.834000       15.9994           0
     28337 TIP3     4846     TIP3     H1       HT       0.417000       1.00800           0
     28338 TIP3     4846     TIP3     H2       HT       0.417000       1.00800           0
     28339 TIP3     4847     TIP3     OH2      OT      -0.834000       15.9994           0
     28340 TIP3     4847     TIP3     H1       HT       0.417000       1.00800           0
     28341 TIP3     4847     TIP3     H2       HT       0.417000       1.00800           0
     28342 TIP3     4848     TIP3     OH2      OT      -0.834000       15.9994           0
     28343 TIP3     4848     TIP3     H1       HT       0.417000       1.00800           0
     28344 TIP3     4848     TIP3     H2       HT       0.417000       1.00800           0
     28345 TIP3     4849     TIP3     OH2      OT      -0.834000       15.9994           0
     28346 TIP3     4849     TIP3     H1       HT       0.417000       1.00800           0
     28347 TIP3     4849     TIP3     H2       HT       0.417000       1.00800           0
     28348 TIP3     4850     TIP3     OH2      OT      -0.834000       15.9994           0
     28349 TIP3     4850     TIP3     H1       HT       0.417000       1.00800           0
     28350 TIP3     4850     TIP3     H2       HT       0.417000       1.00800           0
     28351 TIP3     4851     TIP3     OH2      OT      -0.834000       15.9994           0
     28352 TIP3     4851     TIP3     H1       HT       0.417000       1.00800           0
     28353 TIP3     4851     TIP3     H2       HT       0.417000       1.00800           0
     28354 TIP3     4852     TIP3     OH2      OT      -0.834000       15.9994           0
     28355 TIP3     4852     TIP3     H1       HT       0.417000       1.00800           0
     28356 TIP3     4852     TIP3     H2       HT       0.417000       1.00800           0
     28357 TIP3     4853     TIP3     OH2      OT      -0.834000       15.9994           0
     28358 TIP3     4853     TIP3     H1       HT       0.417000       1.00800           0
     28359 TIP3     4853     TIP3     H2       HT       0.417000       1.00800           0
     28360 TIP3     4854     TIP3     OH2      OT      -0.834000       15.9994           0
     28361 TIP3     4854     TIP3     H1       HT       0.417000       1.00800           0
     28362 TIP3     4854     TIP3     H2       HT       0.417000       1.00800           0
     28363 TIP3     4855     TIP3     OH2      OT      -0.834000       15.9994           0
     28364 TIP3     4855     TIP3     H1       HT       0.417000       1.00800           0
     28365 TIP3     4855     TIP3     H2       HT       0.417000       1.00800           0
     28366 TIP3     4856     TIP3     OH2      OT      -0.834000       15.9994           0
     28367 TIP3     4856     TIP3     H1       HT       0.417000       1.00800           0
     28368 TIP3     4856     TIP3     H2       HT       0.417000       1.00800           0
     28369 TIP3     4857     TIP3     OH2      OT      -0.834000       15.9994           0
     28370 TIP3     4857     TIP3     H1       HT       0.417000       1.00800           0
     28371 TIP3     4857     TIP3     H2       HT       0.417000       1.00800           0
     28372 TIP3     4858     TIP3     OH2      OT      -0.834000       15.9994           0
     28373 TIP3     4858     TIP3     H1       HT       0.417000       1.00800           0
     28374 TIP3     4858     TIP3     H2       HT       0.417000       1.00800           0
     28375 TIP3     4859     TIP3     OH2      OT      -0.834000       15.9994           0
     28376 TIP3     4859     TIP3     H1       HT       0.417000       1.00800           0
     28377 TIP3     4859     TIP3     H2       HT       0.417000       1.00800           0
     28378 TIP3     4860     TIP3     OH2      OT      -0.834000       15.9994           0
     28379 TIP3     4860     TIP3     H1       HT       0.417000       1.00800           0
     28380 TIP3     4860     TIP3     H2       HT       0.417000       1.00800           0
     28381 TIP3     4861     TIP3     OH2      OT      -0.834000       15.9994           0
     28382 TIP3     4861     TIP3     H1       HT       0.417000       1.00800           0
     28383 TIP3     4861     TIP3     H2       HT       0.417000       1.00800           0
     28384 TIP3     4862     TIP3     OH2      OT      -0.834000       15.9994           0
     28385 TIP3     4862     TIP3     H1       HT       0.417000       1.00800           0
     28386 TIP3     4862     TIP3     H2       HT       0.417000       1.00800           0
     28387 TIP3     4863     TIP3     OH2      OT      -0.834000       15.9994           0
     28388 TIP3     4863     TIP3     H1       HT       0.417000       1.00800           0
     28389 TIP3     4863     TIP3     H2       HT       0.417000       1.00800           0
     28390 TIP3     4864     TIP3     OH2      OT      -0.834000       15.9994           0
     28391 TIP3     4864     TIP3     H1       HT       0.417000       1.00800           0
     28392 TIP3     4864     TIP3     H2       HT       0.417000       1.00800           0
     28393 TIP3     4865     TIP3     OH2      OT      -0.834000       15.9994           0
     28394 TIP3     4865     TIP3     H1       HT       0.417000       1.00800           0
     28395 TIP3     4865     TIP3     H2       HT       0.417000       1.00800           0
     28396 TIP3     4866     TIP3     OH2      OT      -0.834000       15.9994           0
     28397 TIP3     4866     TIP3     H1       HT       0.417000       1.00800           0
     28398 TIP3     4866     TIP3     H2       HT       0.417000       1.00800           0
     28399 TIP3     4867     TIP3     OH2      OT      -0.834000       15.9994           0
     28400 TIP3     4867     TIP3     H1       HT       0.417000       1.00800           0
     28401 TIP3     4867     TIP3     H2       HT       0.417000       1.00800           0
     28402 TIP3     4868     TIP3     OH2      OT      -0.834000       15.9994           0
     28403 TIP3     4868     TIP3     H1       HT       0.417000       1.00800           0
     28404 TIP3     4868     TIP3     H2       HT       0.417000       1.00800           0
     28405 TIP3     4869     TIP3     OH2      OT      -0.834000       15.9994           0
     28406 TIP3     4869     TIP3     H1       HT       0.417000       1.00800           0
     28407 TIP3     4869     TIP3     H2       HT       0.417000       1.00800           0
     28408 TIP3     4870     TIP3     OH2      OT      -0.834000       15.9994           0
     28409 TIP3     4870     TIP3     H1       HT       0.417000       1.00800           0
     28410 TIP3     4870     TIP3     H2       HT       0.417000       1.00800           0
     28411 TIP3     4871     TIP3     OH2      OT      -0.834000       15.9994           0
     28412 TIP3     4871     TIP3     H1       HT       0.417000       1.00800           0
     28413 TIP3     4871     TIP3     H2       HT       0.417000       1.00800           0
     28414 TIP3     4872     TIP3     OH2      OT      -0.834000       15.9994           0
     28415 TIP3     4872     TIP3     H1       HT       0.417000       1.00800           0
     28416 TIP3     4872     TIP3     H2       HT       0.417000       1.00800           0
     28417 TIP3     4873     TIP3     OH2      OT      -0.834000       15.9994           0
     28418 TIP3     4873     TIP3     H1       HT       0.417000       1.00800           0
     28419 TIP3     4873     TIP3     H2       HT       0.417000       1.00800           0
     28420 TIP3     4874     TIP3     OH2      OT      -0.834000       15.9994           0
     28421 TIP3     4874     TIP3     H1       HT       0.417000       1.00800           0
     28422 TIP3     4874     TIP3     H2       HT       0.417000       1.00800           0
     28423 TIP3     4875     TIP3     OH2      OT      -0.834000       15.9994           0
     28424 TIP3     4875     TIP3     H1       HT       0.417000       1.00800           0
     28425 TIP3     4875     TIP3     H2       HT       0.417000       1.00800           0
     28426 TIP3     4876     TIP3     OH2      OT      -0.834000       15.9994           0
     28427 TIP3     4876     TIP3     H1       HT       0.417000       1.00800           0
     28428 TIP3     4876     TIP3     H2       HT       0.417000       1.00800           0
     28429 TIP3     4877     TIP3     OH2      OT      -0.834000       15.9994           0
     28430 TIP3     4877     TIP3     H1       HT       0.417000       1.00800           0
     28431 TIP3     4877     TIP3     H2       HT       0.417000       1.00800           0
     28432 TIP3     4878     TIP3     OH2      OT      -0.834000       15.9994           0
     28433 TIP3     4878     TIP3     H1       HT       0.417000       1.00800           0
     28434 TIP3     4878     TIP3     H2       HT       0.417000       1.00800           0
     28435 TIP3     4879     TIP3     OH2      OT      -0.834000       15.9994           0
     28436 TIP3     4879     TIP3     H1       HT       0.417000       1.00800           0
     28437 TIP3     4879     TIP3     H2       HT       0.417000       1.00800           0
     28438 TIP3     4880     TIP3     OH2      OT      -0.834000       15.9994           0
     28439 TIP3     4880     TIP3     H1       HT       0.417000       1.00800           0
     28440 TIP3     4880     TIP3     H2       HT       0.417000       1.00800           0
     28441 TIP3     4881     TIP3     OH2      OT      -0.834000       15.9994           0
     28442 TIP3     4881     TIP3     H1       HT       0.417000       1.00800           0
     28443 TIP3     4881     TIP3     H2       HT       0.417000       1.00800           0
     28444 TIP3     4882     TIP3     OH2      OT      -0.834000       15.9994           0
     28445 TIP3     4882     TIP3     H1       HT       0.417000       1.00800           0
     28446 TIP3     4882     TIP3     H2       HT       0.417000       1.00800           0
     28447 TIP3     4883     TIP3     OH2      OT      -0.834000       15.9994           0
     28448 TIP3     4883     TIP3     H1       HT       0.417000       1.00800           0
     28449 TIP3     4883     TIP3     H2       HT       0.417000       1.00800           0
     28450 TIP3     4884     TIP3     OH2      OT      -0.834000       15.9994           0
     28451 TIP3     4884     TIP3     H1       HT       0.417000       1.00800           0
     28452 TIP3     4884     TIP3     H2       HT       0.417000       1.00800           0
     28453 TIP3     4885     TIP3     OH2      OT      -0.834000       15.9994           0
     28454 TIP3     4885     TIP3     H1       HT       0.417000       1.00800           0
     28455 TIP3     4885     TIP3     H2       HT       0.417000       1.00800           0
     28456 TIP3     4886     TIP3     OH2      OT      -0.834000       15.9994           0
     28457 TIP3     4886     TIP3     H1       HT       0.417000       1.00800           0
     28458 TIP3     4886     TIP3     H2       HT       0.417000       1.00800           0
     28459 TIP3     4887     TIP3     OH2      OT      -0.834000       15.9994           0
     28460 TIP3     4887     TIP3     H1       HT       0.417000       1.00800           0
     28461 TIP3     4887     TIP3     H2       HT       0.417000       1.00800           0
     28462 TIP3     4888     TIP3     OH2      OT      -0.834000       15.9994           0
     28463 TIP3     4888     TIP3     H1       HT       0.417000       1.00800           0
     28464 TIP3     4888     TIP3     H2       HT       0.417000       1.00800           0
     28465 TIP3     4889     TIP3     OH2      OT      -0.834000       15.9994           0
     28466 TIP3     4889     TIP3     H1       HT       0.417000       1.00800           0
     28467 TIP3     4889     TIP3     H2       HT       0.417000       1.00800           0
     28468 TIP3     4890     TIP3     OH2      OT      -0.834000       15.9994           0
     28469 TIP3     4890     TIP3     H1       HT       0.417000       1.00800           0
     28470 TIP3     4890     TIP3     H2       HT       0.417000       1.00800           0
     28471 TIP3     4891     TIP3     OH2      OT      -0.834000       15.9994           0
     28472 TIP3     4891     TIP3     H1       HT       0.417000       1.00800           0
     28473 TIP3     4891     TIP3     H2       HT       0.417000       1.00800           0
     28474 TIP3     4892     TIP3     OH2      OT      -0.834000       15.9994           0
     28475 TIP3     4892     TIP3     H1       HT       0.417000       1.00800           0
     28476 TIP3     4892     TIP3     H2       HT       0.417000       1.00800           0
     28477 TIP3     4893     TIP3     OH2      OT      -0.834000       15.9994           0
     28478 TIP3     4893     TIP3     H1       HT       0.417000       1.00800           0
     28479 TIP3     4893     TIP3     H2       HT       0.417000       1.00800           0
     28480 TIP3     4894     TIP3     OH2      OT      -0.834000       15.9994           0
     28481 TIP3     4894     TIP3     H1       HT       0.417000       1.00800           0
     28482 TIP3     4894     TIP3     H2       HT       0.417000       1.00800           0
     28483 TIP3     4895     TIP3     OH2      OT      -0.834000       15.9994           0
     28484 TIP3     4895     TIP3     H1       HT       0.417000       1.00800           0
     28485 TIP3     4895     TIP3     H2       HT       0.417000       1.00800           0
     28486 TIP3     4896     TIP3     OH2      OT      -0.834000       15.9994           0
     28487 TIP3     4896     TIP3     H1       HT       0.417000       1.00800           0
     28488 TIP3     4896     TIP3     H2       HT       0.417000       1.00800           0
     28489 TIP3     4897     TIP3     OH2      OT      -0.834000       15.9994           0
     28490 TIP3     4897     TIP3     H1       HT       0.417000       1.00800           0
     28491 TIP3     4897     TIP3     H2       HT       0.417000       1.00800           0
     28492 TIP3     4898     TIP3     OH2      OT      -0.834000       15.9994           0
     28493 TIP3     4898     TIP3     H1       HT       0.417000       1.00800           0
     28494 TIP3     4898     TIP3     H2       HT       0.417000       1.00800           0
     28495 TIP3     4899     TIP3     OH2      OT      -0.834000       15.9994           0
     28496 TIP3     4899     TIP3     H1       HT       0.417000       1.00800           0
     28497 TIP3     4899     TIP3     H2       HT       0.417000       1.00800           0
     28498 TIP3     4900     TIP3     OH2      OT      -0.834000       15.9994           0
     28499 TIP3     4900     TIP3     H1       HT       0.417000       1.00800           0
     28500 TIP3     4900     TIP3     H2       HT       0.417000       1.00800           0
     28501 TIP3     4901     TIP3     OH2      OT      -0.834000       15.9994           0
     28502 TIP3     4901     TIP3     H1       HT       0.417000       1.00800           0
     28503 TIP3     4901     TIP3     H2       HT       0.417000       1.00800           0
     28504 TIP3     4902     TIP3     OH2      OT      -0.834000       15.9994           0
     28505 TIP3     4902     TIP3     H1       HT       0.417000       1.00800           0
     28506 TIP3     4902     TIP3     H2       HT       0.417000       1.00800           0
     28507 TIP3     4903     TIP3     OH2      OT      -0.834000       15.9994           0
     28508 TIP3     4903     TIP3     H1       HT       0.417000       1.00800           0
     28509 TIP3     4903     TIP3     H2       HT       0.417000       1.00800           0
     28510 TIP3     4904     TIP3     OH2      OT      -0.834000       15.9994           0
     28511 TIP3     4904     TIP3     H1       HT       0.417000       1.00800           0
     28512 TIP3     4904     TIP3     H2       HT       0.417000       1.00800           0
     28513 TIP3     4905     TIP3     OH2      OT      -0.834000       15.9994           0
     28514 TIP3     4905     TIP3     H1       HT       0.417000       1.00800           0
     28515 TIP3     4905     TIP3     H2       HT       0.417000       1.00800           0
     28516 TIP3     4906     TIP3     OH2      OT      -0.834000       15.9994           0
     28517 TIP3     4906     TIP3     H1       HT       0.417000       1.00800           0
     28518 TIP3     4906     TIP3     H2       HT       0.417000       1.00800           0
     28519 TIP3     4907     TIP3     OH2      OT      -0.834000       15.9994           0
     28520 TIP3     4907     TIP3     H1       HT       0.417000       1.00800           0
     28521 TIP3     4907     TIP3     H2       HT       0.417000       1.00800           0
     28522 TIP3     4908     TIP3     OH2      OT      -0.834000       15.9994           0
     28523 TIP3     4908     TIP3     H1       HT       0.417000       1.00800           0
     28524 TIP3     4908     TIP3     H2       HT       0.417000       1.00800           0
     28525 TIP3     4909     TIP3     OH2      OT      -0.834000       15.9994           0
     28526 TIP3     4909     TIP3     H1       HT       0.417000       1.00800           0
     28527 TIP3     4909     TIP3     H2       HT       0.417000       1.00800           0
     28528 TIP3     4910     TIP3     OH2      OT      -0.834000       15.9994           0
     28529 TIP3     4910     TIP3     H1       HT       0.417000       1.00800           0
     28530 TIP3     4910     TIP3     H2       HT       0.417000       1.00800           0
     28531 TIP3     4911     TIP3     OH2      OT      -0.834000       15.9994           0
     28532 TIP3     4911     TIP3     H1       HT       0.417000       1.00800           0
     28533 TIP3     4911     TIP3     H2       HT       0.417000       1.00800           0
     28534 TIP3     4912     TIP3     OH2      OT      -0.834000       15.9994           0
     28535 TIP3     4912     TIP3     H1       HT       0.417000       1.00800           0
     28536 TIP3     4912     TIP3     H2       HT       0.417000       1.00800           0
     28537 TIP3     4913     TIP3     OH2      OT      -0.834000       15.9994           0
     28538 TIP3     4913     TIP3     H1       HT       0.417000       1.00800           0
     28539 TIP3     4913     TIP3     H2       HT       0.417000       1.00800           0
     28540 TIP3     4914     TIP3     OH2      OT      -0.834000       15.9994           0
     28541 TIP3     4914     TIP3     H1       HT       0.417000       1.00800           0
     28542 TIP3     4914     TIP3     H2       HT       0.417000       1.00800           0
     28543 TIP3     4915     TIP3     OH2      OT      -0.834000       15.9994           0
     28544 TIP3     4915     TIP3     H1       HT       0.417000       1.00800           0
     28545 TIP3     4915     TIP3     H2       HT       0.417000       1.00800           0
     28546 TIP3     4916     TIP3     OH2      OT      -0.834000       15.9994           0
     28547 TIP3     4916     TIP3     H1       HT       0.417000       1.00800           0
     28548 TIP3     4916     TIP3     H2       HT       0.417000       1.00800           0
     28549 TIP3     4917     TIP3     OH2      OT      -0.834000       15.9994           0
     28550 TIP3     4917     TIP3     H1       HT       0.417000       1.00800           0
     28551 TIP3     4917     TIP3     H2       HT       0.417000       1.00800           0
     28552 TIP3     4918     TIP3     OH2      OT      -0.834000       15.9994           0
     28553 TIP3     4918     TIP3     H1       HT       0.417000       1.00800           0
     28554 TIP3     4918     TIP3     H2       HT       0.417000       1.00800           0
     28555 TIP3     4919     TIP3     OH2      OT      -0.834000       15.9994           0
     28556 TIP3     4919     TIP3     H1       HT       0.417000       1.00800           0
     28557 TIP3     4919     TIP3     H2       HT       0.417000       1.00800           0
     28558 TIP3     4920     TIP3     OH2      OT      -0.834000       15.9994           0
     28559 TIP3     4920     TIP3     H1       HT       0.417000       1.00800           0
     28560 TIP3     4920     TIP3     H2       HT       0.417000       1.00800           0
     28561 TIP3     4921     TIP3     OH2      OT      -0.834000       15.9994           0
     28562 TIP3     4921     TIP3     H1       HT       0.417000       1.00800           0
     28563 TIP3     4921     TIP3     H2       HT       0.417000       1.00800           0
     28564 TIP3     4922     TIP3     OH2      OT      -0.834000       15.9994           0
     28565 TIP3     4922     TIP3     H1       HT       0.417000       1.00800           0
     28566 TIP3     4922     TIP3     H2       HT       0.417000       1.00800           0
     28567 TIP3     4923     TIP3     OH2      OT      -0.834000       15.9994           0
     28568 TIP3     4923     TIP3     H1       HT       0.417000       1.00800           0
     28569 TIP3     4923     TIP3     H2       HT       0.417000       1.00800           0
     28570 TIP3     4924     TIP3     OH2      OT      -0.834000       15.9994           0
     28571 TIP3     4924     TIP3     H1       HT       0.417000       1.00800           0
     28572 TIP3     4924     TIP3     H2       HT       0.417000       1.00800           0
     28573 TIP3     4925     TIP3     OH2      OT      -0.834000       15.9994           0
     28574 TIP3     4925     TIP3     H1       HT       0.417000       1.00800           0
     28575 TIP3     4925     TIP3     H2       HT       0.417000       1.00800           0
     28576 TIP3     4926     TIP3     OH2      OT      -0.834000       15.9994           0
     28577 TIP3     4926     TIP3     H1       HT       0.417000       1.00800           0
     28578 TIP3     4926     TIP3     H2       HT       0.417000       1.00800           0
     28579 TIP3     4927     TIP3     OH2      OT      -0.834000       15.9994           0
     28580 TIP3     4927     TIP3     H1       HT       0.417000       1.00800           0
     28581 TIP3     4927     TIP3     H2       HT       0.417000       1.00800           0
     28582 TIP3     4928     TIP3     OH2      OT      -0.834000       15.9994           0
     28583 TIP3     4928     TIP3     H1       HT       0.417000       1.00800           0
     28584 TIP3     4928     TIP3     H2       HT       0.417000       1.00800           0
     28585 TIP3     4929     TIP3     OH2      OT      -0.834000       15.9994           0
     28586 TIP3     4929     TIP3     H1       HT       0.417000       1.00800           0
     28587 TIP3     4929     TIP3     H2       HT       0.417000       1.00800           0
     28588 TIP3     4930     TIP3     OH2      OT      -0.834000       15.9994           0
     28589 TIP3     4930     TIP3     H1       HT       0.417000       1.00800           0
     28590 TIP3     4930     TIP3     H2       HT       0.417000       1.00800           0
     28591 TIP3     4931     TIP3     OH2      OT      -0.834000       15.9994           0
     28592 TIP3     4931     TIP3     H1       HT       0.417000       1.00800           0
     28593 TIP3     4931     TIP3     H2       HT       0.417000       1.00800           0
     28594 TIP3     4932     TIP3     OH2      OT      -0.834000       15.9994           0
     28595 TIP3     4932     TIP3     H1       HT       0.417000       1.00800           0
     28596 TIP3     4932     TIP3     H2       HT       0.417000       1.00800           0
     28597 TIP3     4933     TIP3     OH2      OT      -0.834000       15.9994           0
     28598 TIP3     4933     TIP3     H1       HT       0.417000       1.00800           0
     28599 TIP3     4933     TIP3     H2       HT       0.417000       1.00800           0
     28600 TIP3     4934     TIP3     OH2      OT      -0.834000       15.9994           0
     28601 TIP3     4934     TIP3     H1       HT       0.417000       1.00800           0
     28602 TIP3     4934     TIP3     H2       HT       0.417000       1.00800           0
     28603 TIP3     4935     TIP3     OH2      OT      -0.834000       15.9994           0
     28604 TIP3     4935     TIP3     H1       HT       0.417000       1.00800           0
     28605 TIP3     4935     TIP3     H2       HT       0.417000       1.00800           0
     28606 TIP3     4936     TIP3     OH2      OT      -0.834000       15.9994           0
     28607 TIP3     4936     TIP3     H1       HT       0.417000       1.00800           0
     28608 TIP3     4936     TIP3     H2       HT       0.417000       1.00800           0
     28609 TIP3     4937     TIP3     OH2      OT      -0.834000       15.9994           0
     28610 TIP3     4937     TIP3     H1       HT       0.417000       1.00800           0
     28611 TIP3     4937     TIP3     H2       HT       0.417000       1.00800           0
     28612 TIP3     4938     TIP3     OH2      OT      -0.834000       15.9994           0
     28613 TIP3     4938     TIP3     H1       HT       0.417000       1.00800           0
     28614 TIP3     4938     TIP3     H2       HT       0.417000       1.00800           0
     28615 TIP3     4939     TIP3     OH2      OT      -0.834000       15.9994           0
     28616 TIP3     4939     TIP3     H1       HT       0.417000       1.00800           0
     28617 TIP3     4939     TIP3     H2       HT       0.417000       1.00800           0
     28618 TIP3     4940     TIP3     OH2      OT      -0.834000       15.9994           0
     28619 TIP3     4940     TIP3     H1       HT       0.417000       1.00800           0
     28620 TIP3     4940     TIP3     H2       HT       0.417000       1.00800           0
     28621 TIP3     4941     TIP3     OH2      OT      -0.834000       15.9994           0
     28622 TIP3     4941     TIP3     H1       HT       0.417000       1.00800           0
     28623 TIP3     4941     TIP3     H2       HT       0.417000       1.00800           0
     28624 TIP3     4942     TIP3     OH2      OT      -0.834000       15.9994           0
     28625 TIP3     4942     TIP3     H1       HT       0.417000       1.00800           0
     28626 TIP3     4942     TIP3     H2       HT       0.417000       1.00800           0
     28627 TIP3     4943     TIP3     OH2      OT      -0.834000       15.9994           0
     28628 TIP3     4943     TIP3     H1       HT       0.417000       1.00800           0
     28629 TIP3     4943     TIP3     H2       HT       0.417000       1.00800           0
     28630 TIP3     4944     TIP3     OH2      OT      -0.834000       15.9994           0
     28631 TIP3     4944     TIP3     H1       HT       0.417000       1.00800           0
     28632 TIP3     4944     TIP3     H2       HT       0.417000       1.00800           0
     28633 TIP3     4945     TIP3     OH2      OT      -0.834000       15.9994           0
     28634 TIP3     4945     TIP3     H1       HT       0.417000       1.00800           0
     28635 TIP3     4945     TIP3     H2       HT       0.417000       1.00800           0
     28636 TIP3     4946     TIP3     OH2      OT      -0.834000       15.9994           0
     28637 TIP3     4946     TIP3     H1       HT       0.417000       1.00800           0
     28638 TIP3     4946     TIP3     H2       HT       0.417000       1.00800           0
     28639 TIP3     4947     TIP3     OH2      OT      -0.834000       15.9994           0
     28640 TIP3     4947     TIP3     H1       HT       0.417000       1.00800           0
     28641 TIP3     4947     TIP3     H2       HT       0.417000       1.00800           0
     28642 TIP3     4948     TIP3     OH2      OT      -0.834000       15.9994           0
     28643 TIP3     4948     TIP3     H1       HT       0.417000       1.00800           0
     28644 TIP3     4948     TIP3     H2       HT       0.417000       1.00800           0
     28645 TIP3     4949     TIP3     OH2      OT      -0.834000       15.9994           0
     28646 TIP3     4949     TIP3     H1       HT       0.417000       1.00800           0
     28647 TIP3     4949     TIP3     H2       HT       0.417000       1.00800           0
     28648 TIP3     4950     TIP3     OH2      OT      -0.834000       15.9994           0
     28649 TIP3     4950     TIP3     H1       HT       0.417000       1.00800           0
     28650 TIP3     4950     TIP3     H2       HT       0.417000       1.00800           0
     28651 TIP3     4951     TIP3     OH2      OT      -0.834000       15.9994           0
     28652 TIP3     4951     TIP3     H1       HT       0.417000       1.00800           0
     28653 TIP3     4951     TIP3     H2       HT       0.417000       1.00800           0
     28654 TIP3     4952     TIP3     OH2      OT      -0.834000       15.9994           0
     28655 TIP3     4952     TIP3     H1       HT       0.417000       1.00800           0
     28656 TIP3     4952     TIP3     H2       HT       0.417000       1.00800           0
     28657 TIP3     4953     TIP3     OH2      OT      -0.834000       15.9994           0
     28658 TIP3     4953     TIP3     H1       HT       0.417000       1.00800           0
     28659 TIP3     4953     TIP3     H2       HT       0.417000       1.00800           0
     28660 TIP3     4954     TIP3     OH2      OT      -0.834000       15.9994           0
     28661 TIP3     4954     TIP3     H1       HT       0.417000       1.00800           0
     28662 TIP3     4954     TIP3     H2       HT       0.417000       1.00800           0
     28663 TIP3     4955     TIP3     OH2      OT      -0.834000       15.9994           0
     28664 TIP3     4955     TIP3     H1       HT       0.417000       1.00800           0
     28665 TIP3     4955     TIP3     H2       HT       0.417000       1.00800           0
     28666 TIP3     4956     TIP3     OH2      OT      -0.834000       15.9994           0
     28667 TIP3     4956     TIP3     H1       HT       0.417000       1.00800           0
     28668 TIP3     4956     TIP3     H2       HT       0.417000       1.00800           0
     28669 TIP3     4957     TIP3     OH2      OT      -0.834000       15.9994           0
     28670 TIP3     4957     TIP3     H1       HT       0.417000       1.00800           0
     28671 TIP3     4957     TIP3     H2       HT       0.417000       1.00800           0
     28672 TIP3     4958     TIP3     OH2      OT      -0.834000       15.9994           0
     28673 TIP3     4958     TIP3     H1       HT       0.417000       1.00800           0
     28674 TIP3     4958     TIP3     H2       HT       0.417000       1.00800           0
     28675 TIP3     4959     TIP3     OH2      OT      -0.834000       15.9994           0
     28676 TIP3     4959     TIP3     H1       HT       0.417000       1.00800           0
     28677 TIP3     4959     TIP3     H2       HT       0.417000       1.00800           0
     28678 TIP3     4960     TIP3     OH2      OT      -0.834000       15.9994           0
     28679 TIP3     4960     TIP3     H1       HT       0.417000       1.00800           0
     28680 TIP3     4960     TIP3     H2       HT       0.417000       1.00800           0
     28681 TIP3     4961     TIP3     OH2      OT      -0.834000       15.9994           0
     28682 TIP3     4961     TIP3     H1       HT       0.417000       1.00800           0
     28683 TIP3     4961     TIP3     H2       HT       0.417000       1.00800           0
     28684 TIP3     4962     TIP3     OH2      OT      -0.834000       15.9994           0
     28685 TIP3     4962     TIP3     H1       HT       0.417000       1.00800           0
     28686 TIP3     4962     TIP3     H2       HT       0.417000       1.00800           0
     28687 TIP3     4963     TIP3     OH2      OT      -0.834000       15.9994           0
     28688 TIP3     4963     TIP3     H1       HT       0.417000       1.00800           0
     28689 TIP3     4963     TIP3     H2       HT       0.417000       1.00800           0
     28690 TIP3     4964     TIP3     OH2      OT      -0.834000       15.9994           0
     28691 TIP3     4964     TIP3     H1       HT       0.417000       1.00800           0
     28692 TIP3     4964     TIP3     H2       HT       0.417000       1.00800           0
     28693 TIP3     4965     TIP3     OH2      OT      -0.834000       15.9994           0
     28694 TIP3     4965     TIP3     H1       HT       0.417000       1.00800           0
     28695 TIP3     4965     TIP3     H2       HT       0.417000       1.00800           0
     28696 TIP3     4966     TIP3     OH2      OT      -0.834000       15.9994           0
     28697 TIP3     4966     TIP3     H1       HT       0.417000       1.00800           0
     28698 TIP3     4966     TIP3     H2       HT       0.417000       1.00800           0
     28699 TIP3     4967     TIP3     OH2      OT      -0.834000       15.9994           0
     28700 TIP3     4967     TIP3     H1       HT       0.417000       1.00800           0
     28701 TIP3     4967     TIP3     H2       HT       0.417000       1.00800           0
     28702 TIP3     4968     TIP3     OH2      OT      -0.834000       15.9994           0
     28703 TIP3     4968     TIP3     H1       HT       0.417000       1.00800           0
     28704 TIP3     4968     TIP3     H2       HT       0.417000       1.00800           0
     28705 TIP3     4969     TIP3     OH2      OT      -0.834000       15.9994           0
     28706 TIP3     4969     TIP3     H1       HT       0.417000       1.00800           0
     28707 TIP3     4969     TIP3     H2       HT       0.417000       1.00800           0
     28708 TIP3     4970     TIP3     OH2      OT      -0.834000       15.9994           0
     28709 TIP3     4970     TIP3     H1       HT       0.417000       1.00800           0
     28710 TIP3     4970     TIP3     H2       HT       0.417000       1.00800           0
     28711 TIP3     4971     TIP3     OH2      OT      -0.834000       15.9994           0
     28712 TIP3     4971     TIP3     H1       HT       0.417000       1.00800           0
     28713 TIP3     4971     TIP3     H2       HT       0.417000       1.00800           0
     28714 TIP3     4972     TIP3     OH2      OT      -0.834000       15.9994           0
     28715 TIP3     4972     TIP3     H1       HT       0.417000       1.00800           0
     28716 TIP3     4972     TIP3     H2       HT       0.417000       1.00800           0
     28717 TIP3     4973     TIP3     OH2      OT      -0.834000       15.9994           0
     28718 TIP3     4973     TIP3     H1       HT       0.417000       1.00800           0
     28719 TIP3     4973     TIP3     H2       HT       0.417000       1.00800           0
     28720 TIP3     4974     TIP3     OH2      OT      -0.834000       15.9994           0
     28721 TIP3     4974     TIP3     H1       HT       0.417000       1.00800           0
     28722 TIP3     4974     TIP3     H2       HT       0.417000       1.00800           0
     28723 TIP3     4975     TIP3     OH2      OT      -0.834000       15.9994           0
     28724 TIP3     4975     TIP3     H1       HT       0.417000       1.00800           0
     28725 TIP3     4975     TIP3     H2       HT       0.417000       1.00800           0
     28726 TIP3     4976     TIP3     OH2      OT      -0.834000       15.9994           0
     28727 TIP3     4976     TIP3     H1       HT       0.417000       1.00800           0
     28728 TIP3     4976     TIP3     H2       HT       0.417000       1.00800           0
     28729 TIP3     4977     TIP3     OH2      OT      -0.834000       15.9994           0
     28730 TIP3     4977     TIP3     H1       HT       0.417000       1.00800           0
     28731 TIP3     4977     TIP3     H2       HT       0.417000       1.00800           0
     28732 TIP3     4978     TIP3     OH2      OT      -0.834000       15.9994           0
     28733 TIP3     4978     TIP3     H1       HT       0.417000       1.00800           0
     28734 TIP3     4978     TIP3     H2       HT       0.417000       1.00800           0
     28735 TIP3     4979     TIP3     OH2      OT      -0.834000       15.9994           0
     28736 TIP3     4979     TIP3     H1       HT       0.417000       1.00800           0
     28737 TIP3     4979     TIP3     H2       HT       0.417000       1.00800           0
     28738 TIP3     4980     TIP3     OH2      OT      -0.834000       15.9994           0
     28739 TIP3     4980     TIP3     H1       HT       0.417000       1.00800           0
     28740 TIP3     4980     TIP3     H2       HT       0.417000       1.00800           0
     28741 TIP3     4981     TIP3     OH2      OT      -0.834000       15.9994           0
     28742 TIP3     4981     TIP3     H1       HT       0.417000       1.00800           0
     28743 TIP3     4981     TIP3     H2       HT       0.417000       1.00800           0
     28744 TIP3     4982     TIP3     OH2      OT      -0.834000       15.9994           0
     28745 TIP3     4982     TIP3     H1       HT       0.417000       1.00800           0
     28746 TIP3     4982     TIP3     H2       HT       0.417000       1.00800           0
     28747 TIP3     4983     TIP3     OH2      OT      -0.834000       15.9994           0
     28748 TIP3     4983     TIP3     H1       HT       0.417000       1.00800           0
     28749 TIP3     4983     TIP3     H2       HT       0.417000       1.00800           0
     28750 TIP3     4984     TIP3     OH2      OT      -0.834000       15.9994           0
     28751 TIP3     4984     TIP3     H1       HT       0.417000       1.00800           0
     28752 TIP3     4984     TIP3     H2       HT       0.417000       1.00800           0
     28753 TIP3     4985     TIP3     OH2      OT      -0.834000       15.9994           0
     28754 TIP3     4985     TIP3     H1       HT       0.417000       1.00800           0
     28755 TIP3     4985     TIP3     H2       HT       0.417000       1.00800           0
     28756 TIP3     4986     TIP3     OH2      OT      -0.834000       15.9994           0
     28757 TIP3     4986     TIP3     H1       HT       0.417000       1.00800           0
     28758 TIP3     4986     TIP3     H2       HT       0.417000       1.00800           0
     28759 TIP3     4987     TIP3     OH2      OT      -0.834000       15.9994           0
     28760 TIP3     4987     TIP3     H1       HT       0.417000       1.00800           0
     28761 TIP3     4987     TIP3     H2       HT       0.417000       1.00800           0
     28762 TIP3     4988     TIP3     OH2      OT      -0.834000       15.9994           0
     28763 TIP3     4988     TIP3     H1       HT       0.417000       1.00800           0
     28764 TIP3     4988     TIP3     H2       HT       0.417000       1.00800           0
     28765 TIP3     4989     TIP3     OH2      OT      -0.834000       15.9994           0
     28766 TIP3     4989     TIP3     H1       HT       0.417000       1.00800           0
     28767 TIP3     4989     TIP3     H2       HT       0.417000       1.00800           0
     28768 TIP3     4990     TIP3     OH2      OT      -0.834000       15.9994           0
     28769 TIP3     4990     TIP3     H1       HT       0.417000       1.00800           0
     28770 TIP3     4990     TIP3     H2       HT       0.417000       1.00800           0
     28771 TIP3     4991     TIP3     OH2      OT      -0.834000       15.9994           0
     28772 TIP3     4991     TIP3     H1       HT       0.417000       1.00800           0
     28773 TIP3     4991     TIP3     H2       HT       0.417000       1.00800           0
     28774 TIP3     4992     TIP3     OH2      OT      -0.834000       15.9994           0
     28775 TIP3     4992     TIP3     H1       HT       0.417000       1.00800           0
     28776 TIP3     4992     TIP3     H2       HT       0.417000       1.00800           0
     28777 TIP3     4993     TIP3     OH2      OT      -0.834000       15.9994           0
     28778 TIP3     4993     TIP3     H1       HT       0.417000       1.00800           0
     28779 TIP3     4993     TIP3     H2       HT       0.417000       1.00800           0
     28780 TIP3     4994     TIP3     OH2      OT      -0.834000       15.9994           0
     28781 TIP3     4994     TIP3     H1       HT       0.417000       1.00800           0
     28782 TIP3     4994     TIP3     H2       HT       0.417000       1.00800           0
     28783 TIP3     4995     TIP3     OH2      OT      -0.834000       15.9994           0
     28784 TIP3     4995     TIP3     H1       HT       0.417000       1.00800           0
     28785 TIP3     4995     TIP3     H2       HT       0.417000       1.00800           0
     28786 TIP3     4996     TIP3     OH2      OT      -0.834000       15.9994           0
     28787 TIP3     4996     TIP3     H1       HT       0.417000       1.00800           0
     28788 TIP3     4996     TIP3     H2       HT       0.417000       1.00800           0
     28789 TIP3     4997     TIP3     OH2      OT      -0.834000       15.9994           0
     28790 TIP3     4997     TIP3     H1       HT       0.417000       1.00800           0
     28791 TIP3     4997     TIP3     H2       HT       0.417000       1.00800           0
     28792 TIP3     4998     TIP3     OH2      OT      -0.834000       15.9994           0
     28793 TIP3     4998     TIP3     H1       HT       0.417000       1.00800           0
     28794 TIP3     4998     TIP3     H2       HT       0.417000       1.00800           0
     28795 TIP3     4999     TIP3     OH2      OT      -0.834000       15.9994           0
     28796 TIP3     4999     TIP3     H1       HT       0.417000       1.00800           0
     28797 TIP3     4999     TIP3     H2       HT       0.417000       1.00800           0
     28798 TIP3     5000     TIP3     OH2      OT      -0.834000       15.9994           0
     28799 TIP3     5000     TIP3     H1       HT       0.417000       1.00800           0
     28800 TIP3     5000     TIP3     H2       HT       0.417000       1.00800           0
     28801 IONS     1        POT      POT      POT       1.00000       39.0983           0
     28802 IONS     2        POT      POT      POT       1.00000       39.0983           0
     28803 IONS     3        POT      POT      POT       1.00000       39.0983           0
     28804 IONS     4        POT      POT      POT       1.00000       39.0983           0
     28805 IONS     5        POT      POT      POT       1.00000       39.0983           0
     28806 IONS     6        POT      POT      POT       1.00000       39.0983           0
     28807 IONS     7        POT      POT      POT       1.00000       39.0983           0
     28808 IONS     8        POT      POT      POT       1.00000       39.0983           0
     28809 IONS     9        POT      POT      POT       1.00000       39.0983           0
     28810 IONS     10       POT      POT      POT       1.00000       39.0983           0
     28811 IONS     11       CLA      CLA      CLA      -1.00000       35.4500           0
     28812 IONS     12       CLA      CLA      CLA      -1.00000       35.4500           0
     28813 IONS     13       CLA      CLA      CLA      -1.00000       35.4500           0
     28814 IONS     14       CLA      CLA      CLA      -1.00000       35.4500           0
     28815 IONS     15       CLA      CLA      CLA      -1.00000       35.4500           0
     28816 IONS     16       CLA      CLA      CLA      -1.00000       35.4500           0
     28817 IONS     17       CLA      CLA      CLA      -1.00000       35.4500           0
     28818 IONS     18       CLA      CLA      CLA      -1.00000       35.4500           0
     28819 IONS     19       CLA      CLA      CLA      -1.00000       35.4500           0
     28820 IONS     20       CLA      CLA      CLA      -1.00000       35.4500           0

     28700 !NBOND: bonds
         1         5         1         9         1        13         5         6
         5         7         5         8         9        10         9        11
         9        12        13        14        13        15        13        16
         1         2         2         3         2         4         2        17
        17        18        17        19        17        23        24        25
        23        20        20        24        20        21        20        22
        25        26        25        27        25        28        28        29
        28        36        28        30        36        37        36        38
        36        39        30        31        31        33        31        32
        33        34        33        35        33        45        45        46
        45        47        45        48        48        49        48        50
        48        51        51        52        51        53        51        54
        54        55        54        56        54        57        57        58
        57        59        57        60        60        61        60        62
        60        63        63        64        63        65        65        66
        65        67        67        68        67        69        67        70
        70        71        70        72        70        73        73        74
        73        75        73        76        76        77        76        78
        76        79        79        80        79        81        79        82
        82        83        82        84        82        85        85        86
        85        87        85        88        88        89        88        90
        88        91        39        40        40        42        40        41
        42        43        42        44        42        92        92        93
        92        94        92        95        95        96        95        97
        95        98        98        99        98       100        98       101
       101       102       101       103       101       104       104       105
       104       106       104       107       107       108       107       109
       107       110       110       111       110       112       112       113
       112       114       114       115       114       116       114       117
       117       118       117       119       117       120       120       121
       120       122       120       123       123       124       123       125
       123       126       126       127       126       128       126       129
       129       130       129       131       129       132       132       133
       132       134       132       135       135       136       135       137
       135       138       139       143       139       147       139       151
       143       144       143       145       143       146       147       148
       147       149       147       150       151       152       151       153
       151       154       139       140       140       141       140       142
       140       155       155       156       155       157       155       161
       162       163       161       158       158       162       158       159
       158       160       163       164       163       165       163       166
       166       167       166       174       166       168       174       175
       174       176       174       177       168       169       169       171
       169       170       171       172       171       173       171       183
       183       184       183       185       183       186       186       187
       186       188       186       189       189       190       189       191
       189       192       192       193       192       194       192       195
       195       196       195       197       195       198       198       199
       198       200       198       201       201       202       201       203
       203       204       203       205       205       206       205       207
       205       208       208       209       208       210       208       211
       211       212       211       213       211       214       214       215
       214       216       214       217       217       218       217       219
       217       220       220       221       220       222       220       223
       223       224       223       225       223       226       226       227
       226       228       226       229       177       178       178       180
       178       179       180       181       180       182       180       230
       230       231       230       232       230       233       233       234
       233       235       233       236       236       237       236       238
       236       239       239       240       239       241       239       242
       242       243       242       244       242       245       245       246
       245       247       245       248       248       249       248       250
       250       251       250       252       252       253       252       254
       252       255       255       256       255       257       255       258
       258       259       258       260       258       261       261       262
       261       263       261       264       264       265       264       266
       264       267       267       268       267       269       267       270
       270       271       270       272       270       273       273       274
       273       275       273       276       277       281       277       285
       277       289       281       282       281       283       281       284
       285       286       285       287       285       288       289       290
       289       291       289       292       277       278       278       279
       278       280       278       293       293       294       293       295
       293       299       300       301       299       296       296       300
       296       297       296       298       301       302       301       303
       301       304       304       305       304       312       304       306
       312       313       312       314       312       315       306       307
       307       309       307       308       309       310       309       311
       309       321       321       322       321       323       321       324
       324       325       324       326       324       327       327       328
       327       329       327       330       330       331       330       332
       330       333       333       334       333       335       333       336
       336       337       336       338       336       339       339       340
       339       341       341       342       341       343       343       344
       343       345       343       346       346       347       346       348
       346       349       349       350       349       351       349       352
       352       353       352       354       352       355       355       356
       355       357       355       358       358       359       358       360
       358       361       361       362       361       363       361       364
       364       365       364       366       364       367       315       316
       316       318       316       317       318       319       318       320
       318       368       368       369       368       370       368       371
       371       372       371       373       371       374       374       375
       374       376       374       377       377       378       377       379
       377       380       380       381       380       382       380       383
       383       384       383       385       383       386       386       387
       386       388       388       389       388       390       390       391
       390       392       390       393       393       394       393       395
       393       396       396       397       396       398       396       399
       399       400       399       401       399       402       402       403
       402       404       402       405       405       406       405       407
       405       408       408       409       408       410       408       411
       411       412       411       413       411       414       415       419
       415       423       415       427       419       420       419       421
       419       422       423       424       423       425       423       426
       427       428       427       429       427       430       415       416
       416       417       416       418       416       431       431       432
       431       433       431       437       438       439       437       434
       434       438       434       435       434       436       439       440
       439       441       439       442       442       443       442       450
       442       444       450       451       450       452       450       453
       444       445       445       447       445       446       447       448
       447       449       447       459       459       460       459       461
       459       462       462       463       462       464       462       465
       465       466       465       467       465       468       468       469
       468       470       468       471       471       472       471       473
       471       474       474       475       474       476       474       477
       477       478       477       479       479       480       479       481
       481       482       481       483       481       484       484       485
       484       486       484       487       487       488       487       489
       487       490       490       491       490       492       490       493
       493       494       493       495       493       496       496       497
       496       498       496       499       499       500       499       501
       499       502       502       503       502       504       502       505
       453       454       454       456       454       455       456       457
       456       458       456       506       506       507       506       508
       506       509       509       510       509       511       509       512
       512       513       512       514       512       515       515       516
       515       517       515       518       518       519       518       520
       518       521       521       522       521       523       521       524
       524       525       524       526       526       527       526       528
       528       529       528       530       528       531       531       532
       531       533       531       534       534       535       534       536
       534       537       537       538       537       539       537       540
       540       541       540       542       540       543       543       544
       543       545       543       546       546       547       546       548
       546       549       549       550       549       551       549       552
       553       557       553       561       553       565       557       558
       557       559       557       560       561       562       561       563
       561       564       565       566       565       567       565       568
       553       554       554       555       554       556       554       569
       569       570       569       571       569       575       576       577
       575       572       572       576       572       573       572       574
       577       578       577       579       577       580       580       581
       580       588       580       582       588       589       588       590
       588       591       582       583       583       585       583       584
       585       586       585       587       585       597       597       598
       597       599       597       600       600       601       600       602
       600       603       603       604       603       605       603       606
       606       607       606       608       606       609       609       610
       609       611       609       612       612       613       612       614
       612       615       615       616       615       617       617       618
       617       619       619       620       619       621       619       622
       622       623       622       624       622       625       625       626
       625       627       625       628       628       629       628       630
       628       631       631       632       631       633       631       634
       634       635       634       636       634       637       637       638
       637       639       637       640       640       641       640       642
       640       643       591       592       592       594       592       593
       594       595       594       596       594       644       644       645
       644       646       644       647       647       648       647       649
       647       650       650       651       650       652       650       653
       653       654       653       655       653       656       656       657
       656       658       656       659       659       660       659       661
       659       662       662       663       662       664       664       665
       664       666       666       667       666       668       666       669
       669       670       669       671       669       672       672       673
       672       674       672       675       675       676       675       677
       675       678       678       679       678       680       678       681
       681       682       681       683       681       684       684       685
       684       686       684       687       687       688       687       689
       687       690       691       695       691       699       691       703
       695       696       695       697       695       698       699       700
       699       701       699       702       703       704       703       705
       703       706       691       692       692       693       692       694
       692       707       707       708       707       709       707       713
       714       715       713       710       710       714       710       711
       710       712       715       716       715       717       715       718
       718       719       718       726       718       720       726       727
       726       728       726       729       720       721       721       723
       721       722       723       724       723       725       723       735
       735       736       735       737       735       738       738       739
       738       740       738       741       741       742       741       743
       741       744       744       745       744       746       744       747
       747       748       747       749       747       750       750       751
       750       752       750       753       753       754       753       755
       755       756       755       757       757       758       757       759
       757       760       760       761       760       762       760       763
       763       764       763       765       763       766       766       767
       766       768       766       769       769       770       769       771
       769       772       772       773       772       774       772       775
       775       776       775       777       775       778       778       779
       778       780       778       781       729       730       730       732
       730       731       732       733       732       734       732       782
       782       783       782       784       782       785       785       786
       785       787       785       788       788       789       788       790
       788       791       791       792       791       793       791       794
       794       795       794       796       794       797       797       798
       797       799       797       800       800       801       800       802
       802       803       802       804       804       805       804       806
       804       807       807       808       807       809       807       810
       810       811       810       812       810       813       813       814
       813       815       813       816       816       817       816       818
       816       819       819       820       819       821       819       822
       822       823       822       824       822       825       825       826
       825       827       825       828       829       833       829       837
       829       841       833       834       833       835       833       836
       837       838       837       839       837       840       841       842
       841       843       841       844       829       830       830       831
       830       832       830       845       845       846       845       847
       845       851       852       853       851       848       848       852
       848       849       848       850       853       854       853       855
       853       856       856       857       856       864       856       858
       864       865       864       866       864       867       858       859
       859       861       859       860       861       862       861       863
       861       873       873       874       873       875       873       876
       876       877       876       878       876       879       879       880
       879       881       879       882       882       883       882       884
       882       885       885       886       885       887       885       888
       888       889       888       890       888       891       891       892
       891       893       893       894       893       895       895       896
       895       897       895       898       898       899       898       900
       898       901       901       902       901       903       901       904
       904       905       904       906       904       907       907       908
       907       909       907       910       910       911       910       912
       910       913       913       914       913       915       913       916
       916       917       916       918       916       919       867       868
       868       870       868       869       870       871       870       872
       870       920       920       921       920       922       920       923
       923       924       923       925       923       926       926       927
       926       928       926       929       929       930       929       931
       929       932       932       933       932       934       932       935
       935       936       935       937       935       938       938       939
       938       940       940       941       940       942       942       943
       942       944       942       945       945       946       945       947
       945       948       948       949       948       950       948       951
       951       952       951       953       951       954       954       955
       954       956       954       957       957       958       957       959
       957       960       960       961       960       962       960       963
       963       964       963       965       963       966       967       971
       967       975       967       979       971       972       971       973
       971       974       975       976       975       977       975       978
       979       980       979       981       979       982       967       968
       968       969       968       970       968       983       983       984
       983       985       983       989       990       991       989       986
       986       990       986       987       986       988       991       992
       991       993       991       994       994       995       994      1002
       994       996      1002      1003      1002      1004      1002      1005
       996       997       997       999       997       998       999      1000
       999      1001       999      1011      1011      1012      1011      1013
      1011      1014      1014      1015      1014      1016      1014      1017
      1017      1018      1017      1019      1017      1020      1020      1021
      1020      1022      1020      1023      1023      1024      1023      1025
      1023      1026      1026      1027      1026      1028      1026      1029
      1029      1030      1029      1031      1031      1032      1031      1033
      1033      1034      1033      1035      1033      1036      1036      1037
      1036      1038      1036      1039      1039      1040      1039      1041
      1039      1042      1042      1043      1042      1044      1042      1045
      1045      1046      1045      1047      1045      1048      1048      1049
      1048      1050      1048      1051      1051      1052      1051      1053
      1051      1054      1054      1055      1054      1056      1054      1057
      1005      1006      1006      1008      1006      1007      1008      1009
      1008      1010      1008      1058      1058      1059      1058      1060
      1058      1061      1061      1062      1061      1063      1061      1064
      1064      1065      1064      1066      1064      1067      1067      1068
      1067      1069      1067      1070      1070      1071      1070      1072
      1070      1073      1073      1074      1073      1075      1073      1076
      1076      1077      1076      1078      1078      1079      1078      1080
      1080      1081      1080      1082      1080      1083      1083      1084
      1083      1085      1083      1086      1086      1087      1086      1088
      1086      1089      1089      1090      1089      1091      1089      1092
      1092      1093      1092      1094      1092      1095      1095      1096
      1095      1097      1095      1098      1098      1099      1098      1100
      1098      1101      1101      1102      1101      1103      1101      1104
      1105      1109      1105      1113      1105      1117      1109      1110
      1109      1111      1109      1112      1113      1114      1113      1115
      1113      1116      1117      1118      1117      1119      1117      1120
      1105      1106      1106      1107      1106      1108      1106      1121
      1121      1122      1121      1123      1121      1127      1128      1129
      1127      1124      1124      1128      1124      1125      1124      1126
      1129      1130      1129      1131      1129      1132      1132      1133
      1132      1140      1132      1134      1140      1141      1140      1142
      1140      1143      1134      1135      1135      1137      1135      1136
      1137      1138      1137      1139      1137      1149      1149      1150
      1149      1151      1149      1152      1152      1153      1152      1154
      1152      1155      1155      1156      1155      1157      1155      1158
      1158      1159      1158      1160      1158      1161      1161      1162
      1161      1163      1161      1164      1164      1165      1164      1166
      1164      1167      1167      1168      1167      1169      1169      1170
      1169      1171      1171      1172      1171      1173      1171      1174
      1174      1175      1174      1176      1174      1177      1177      1178
      1177      1179      1177      1180      1180      1181      1180      1182
      1180      1183      1183      1184      1183      1185      1183      1186
      1186      1187      1186      1188      1186      1189      1189      1190
      1189      1191      1189      1192      1192      1193      1192      1194
      1192      1195      1143      1144      1144      1146      1144      1145
      1146      1147      1146      1148      1146      1196      1196      1197
      1196      1198      1196      1199      1199      1200      1199      1201
      1199      1202      1202      1203      1202      1204      1202      1205
      1205      1206      1205      1207      1205      1208      1208      1209
      1208      1210      1208      1211      1211      1212      1211      1213
      1211      1214      1214      1215      1214      1216      1216      1217
      1216      1218      1218      1219      1218      1220      1218      1221
      1221      1222      1221      1223      1221      1224      1224      1225
      1224      1226      1224      1227      1227      1228      1227      1229
      1227      1230      1230      1231      1230      1232      1230      1233
      1233      1234      1233      1235      1233      1236      1236      1237
      1236      1238      1236      1239      1239      1240      1239      1241
      1239      1242      1243      1247      1243      1251      1243      1255
      1247      1248      1247      1249      1247      1250      1251      1252
      1251      1253      1251      1254      1255      1256      1255      1257
      1255      1258      1243      1244      1244      1245      1244      1246
      1244      1259      1259      1260      1259      1261      1259      1265
      1266      1267      1265      1262      1262      1266      1262      1263
      1262      1264      1267      1268      1267      1269      1267      1270
      1270      1271      1270      1278      1270      1272      1278      1279
      1278      1280      1278      1281      1272      1273      1273      1275
      1273      1274      1275      1276      1275      1277      1275      1287
      1287      1288      1287      1289      1287      1290      1290      1291
      1290      1292      1290      1293      1293      1294      1293      1295
      1293      1296      1296      1297      1296      1298      1296      1299
      1299      1300      1299      1301      1299      1302      1302      1303
      1302      1304      1302      1305      1305      1306      1305      1307
      1307      1308      1307      1309      1309      1310      1309      1311
      1309      1312      1312      1313      1312      1314      1312      1315
      1315      1316      1315      1317      1315      1318      1318      1319
      1318      1320      1318      1321      1321      1322      1321      1323
      1321      1324      1324      1325      1324      1326      1324      1327
      1327      1328      1327      1329      1327      1330      1330      1331
      1330      1332      1330      1333      1281      1282      1282      1284
      1282      1283      1284      1285      1284      1286      1284      1334
      1334      1335      1334      1336      1334      1337      1337      1338
      1337      1339      1337      1340      1340      1341      1340      1342
      1340      1343      1343      1344      1343      1345      1343      1346
      1346      1347      1346      1348      1346      1349      1349      1350
      1349      1351      1349      1352      1352      1353      1352      1354
      1354      1355      1354      1356      1356      1357      1356      1358
      1356      1359      1359      1360      1359      1361      1359      1362
      1362      1363      1362      1364      1362      1365      1365      1366
      1365      1367      1365      1368      1368      1369      1368      1370
      1368      1371      1371      1372      1371      1373      1371      1374
      1374      1375      1374      1376      1374      1377      1377      1378
      1377      1379      1377      1380      1381      1385      1381      1389
      1381      1393      1385      1386      1385      1387      1385      1388
      1389      1390      1389      1391      1389      1392      1393      1394
      1393      1395      1393      1396      1381      1382      1382      1383
      1382      1384      1382      1397      1397      1398      1397      1399
      1397      1403      1404      1405      1403      1400      1400      1404
      1400      1401      1400      1402      1405      1406      1405      1407
      1405      1408      1408      1409      1408      1416      1408      1410
      1416      1417      1416      1418      1416      1419      1410      1411
      1411      1413      1411      1412      1413      1414      1413      1415
      1413      1425      1425      1426      1425      1427      1425      1428
      1428      1429      1428      1430      1428      1431      1431      1432
      1431      1433      1431      1434      1434      1435      1434      1436
      1434      1437      1437      1438      1437      1439      1437      1440
      1440      1441      1440      1442      1440      1443      1443      1444
      1443      1445      1445      1446      1445      1447      1447      1448
      1447      1449      1447      1450      1450      1451      1450      1452
      1450      1453      1453      1454      1453      1455      1453      1456
      1456      1457      1456      1458      1456      1459      1459      1460
      1459      1461      1459      1462      1462      1463      1462      1464
      1462      1465      1465      1466      1465      1467      1465      1468
      1468      1469      1468      1470      1468      1471      1419      1420
      1420      1422      1420      1421      1422      1423      1422      1424
      1422      1472      1472      1473      1472      1474      1472      1475
      1475      1476      1475      1477      1475      1478      1478      1479
      1478      1480      1478      1481      1481      1482      1481      1483
      1481      1484      1484      1485      1484      1486      1484      1487
      1487      1488      1487      1489      1487      1490      1490      1491
      1490      1492      1492      1493      1492      1494      1494      1495
      1494      1496      1494      1497      1497      1498      1497      1499
      1497      1500      1500      1501      1500      1502      1500      1503
      1503      1504      1503      1505      1503      1506      1506      1507
      1506      1508      1506      1509      1509      1510      1509      1511
      1509      1512      1512      1513      1512      1514      1512      1515
      1515      1516      1515      1517      1515      1518      1519      1523
      1519      1527      1519      1531      1523      1524      1523      1525
      1523      1526      1527      1528      1527      1529      1527      1530
      1531      1532      1531      1533      1531      1534      1519      1520
      1520      1521      1520      1522      1520      1535      1535      1536
      1535      1537      1535      1541      1542      1543      1541      1538
      1538      1542      1538      1539      1538      1540      1543      1544
      1543      1545      1543      1546      1546      1547      1546      1554
      1546      1548      1554      1555      1554      1556      1554      1557
      1548      1549      1549      1551      1549      1550      1551      1552
      1551      1553      1551      1563      1563      1564      1563      1565
      1563      1566      1566      1567      1566      1568      1566      1569
      1569      1570      1569      1571      1569      1572      1572      1573
      1572      1574      1572      1575      1575      1576      1575      1577
      1575      1578      1578      1579      1578      1580      1578      1581
      1581      1582      1581      1583      1583      1584      1583      1585
      1585      1586      1585      1587      1585      1588      1588      1589
      1588      1590      1588      1591      1591      1592      1591      1593
      1591      1594      1594      1595      1594      1596      1594      1597
      1597      1598      1597      1599      1597      1600      1600      1601
      1600      1602      1600      1603      1603      1604      1603      1605
      1603      1606      1606      1607      1606      1608      1606      1609
      1557      1558      1558      1560      1558      1559      1560      1561
      1560      1562      1560      1610      1610      1611      1610      1612
      1610      1613      1613      1614      1613      1615      1613      1616
      1616      1617      1616      1618      1616      1619      1619      1620
      1619      1621      1619      1622      1622      1623      1622      1624
      1622      1625      1625      1626      1625      1627      1625      1628
      1628      1629      1628      1630      1630      1631      1630      1632
      1632      1633      1632      1634      1632      1635      1635      1636
      1635      1637      1635      1638      1638      1639      1638      1640
      1638      1641      1641      1642      1641      1643      1641      1644
      1644      1645      1644      1646      1644      1647      1647      1648
      1647      1649      1647      1650      1650      1651      1650      1652
      1650      1653      1653      1654      1653      1655      1653      1656
      1657      1661      1657      1665      1657      1669      1661      1662
      1661      1663      1661      1664      1665      1666      1665      1667
      1665      1668      1669      1670      1669      1671      1669      1672
      1657      1658      1658      1659      1658      1660      1658      1673
      1673      1674      1673      1675      1673      1679      1680      1681
      1679      1676      1676      1680      1676      1677      1676      1678
      1681      1682      1681      1683      1681      1684      1684      1685
      1684      1692      1684      1686      1692      1693      1692      1694
      1692      1695      1686      1687      1687      1689      1687      1688
      1689      1690      1689      1691      1689      1701      1701      1702
      1701      1703      1701      1704      1704      1705      1704      1706
      1704      1707      1707      1708      1707      1709      1707      1710
      1710      1711      1710      1712      1710      1713      1713      1714
      1713      1715      1713      1716      1716      1717      1716      1718
      1716      1719      1719      1720      1719      1721      1721      1722
      1721      1723      1723      1724      1723      1725      1723      1726
      1726      1727      1726      1728      1726      1729      1729      1730
      1729      1731      1729      1732      1732      1733      1732      1734
      1732      1735      1735      1736      1735      1737      1735      1738
      1738      1739      1738      1740      1738      1741      1741      1742
      1741      1743      1741      1744      1744      1745      1744      1746
      1744      1747      1695      1696      1696      1698      1696      1697
      1698      1699      1698      1700      1698      1748      1748      1749
      1748      1750      1748      1751      1751      1752      1751      1753
      1751      1754      1754      1755      1754      1756      1754      1757
      1757      1758      1757      1759      1757      1760      1760      1761
      1760      1762      1760      1763      1763      1764      1763      1765
      1763      1766      1766      1767      1766      1768      1768      1769
      1768      1770      1770      1771      1770      1772      1770      1773
      1773      1774      1773      1775      1773      1776      1776      1777
      1776      1778      1776      1779      1779      1780      1779      1781
      1779      1782      1782      1783      1782      1784      1782      1785
      1785      1786      1785      1787      1785      1788      1788      1789
      1788      1790      1788      1791      1791      1792      1791      1793
      1791      1794      1795      1799      1795      1803      1795      1807
      1799      1800      1799      1801      1799      1802      1803      1804
      1803      1805      1803      1806      1807      1808      1807      1809
      1807      1810      1795      1796      1796      1797      1796      1798
      1796      1811      1811      1812      1811      1813      1811      1817
      1818      1819      1817      1814      1814      1818      1814      1815
      1814      1816      1819      1820      1819      1821      1819      1822
      1822      1823      1822      1830      1822      1824      1830      1831
      1830      1832      1830      1833      1824      1825      1825      1827
      1825      1826      1827      1828      1827      1829      1827      1839
      1839      1840      1839      1841      1839      1842      1842      1843
      1842      1844      1842      1845      1845      1846      1845      1847
      1845      1848      1848      1849      1848      1850      1848      1851
      1851      1852      1851      1853      1851      1854      1854      1855
      1854      1856      1854      1857      1857      1858      1857      1859
      1859      1860      1859      1861      1861      1862      1861      1863
      1861      1864      1864      1865      1864      1866      1864      1867
      1867      1868      1867      1869      1867      1870      1870      1871
      1870      1872      1870      1873      1873      1874      1873      1875
      1873      1876      1876      1877      1876      1878      1876      1879
      1879      1880      1879      1881      1879      1882      1882      1883
      1882      1884      1882      1885      1833      1834      1834      1836
      1834      1835      1836      1837      1836      1838      1836      1886
      1886      1887      1886      1888      1886      1889      1889      1890
      1889      1891      1889      1892      1892      1893      1892      1894
      1892      1895      1895      1896      1895      1897      1895      1898
      1898      1899      1898      1900      1898      1901      1901      1902
      1901      1903      1901      1904      1904      1905      1904      1906
      1906      1907      1906      1908      1908      1909      1908      1910
      1908      1911      1911      1912      1911      1913      1911      1914
      1914      1915      1914      1916      1914      1917      1917      1918
      1917      1919      1917      1920      1920      1921      1920      1922
      1920      1923      1923      1924      1923      1925      1923      1926
      1926      1927      1926      1928      1926      1929      1929      1930
      1929      1931      1929      1932      1933      1937      1933      1941
      1933      1945      1937      1938      1937      1939      1937      1940
      1941      1942      1941      1943      1941      1944      1945      1946
      1945      1947      1945      1948      1933      1934      1934      1935
      1934      1936      1934      1949      1949      1950      1949      1951
      1949      1955      1956      1957      1955      1952      1952      1956
      1952      1953      1952      1954      1957      1958      1957      1959
      1957      1960      1960      1961      1960      1968      1960      1962
      1968      1969      1968      1970      1968      1971      1962      1963
      1963      1965      1963      1964      1965      1966      1965      1967
      1965      1977      1977      1978      1977      1979      1977      1980
      1980      1981      1980      1982      1980      1983      1983      1984
      1983      1985      1983      1986      1986      1987      1986      1988
      1986      1989      1989      1990      1989      1991      1989      1992
      1992      1993      1992      1994      1992      1995      1995      1996
      1995      1997      1997      1998      1997      1999      1999      2000
      1999      2001      1999      2002      2002      2003      2002      2004
      2002      2005      2005      2006      2005      2007      2005      2008
      2008      2009      2008      2010      2008      2011      2011      2012
      2011      2013      2011      2014      2014      2015      2014      2016
      2014      2017      2017      2018      2017      2019      2017      2020
      2020      2021      2020      2022      2020      2023      1971      1972
      1972      1974      1972      1973      1974      1975      1974      1976
      1974      2024      2024      2025      2024      2026      2024      2027
      2027      2028      2027      2029      2027      2030      2030      2031
      2030      2032      2030      2033      2033      2034      2033      2035
      2033      2036      2036      2037      2036      2038      2036      2039
      2039      2040      2039      2041      2039      2042      2042      2043
      2042      2044      2044      2045      2044      2046      2046      2047
      2046      2048      2046      2049      2049      2050      2049      2051
      2049      2052      2052      2053      2052      2054      2052      2055
      2055      2056      2055      2057      2055      2058      2058      2059
      2058      2060      2058      2061      2061      2062      2061      2063
      2061      2064      2064      2065      2064      2066      2064      2067
      2067      2068      2067      2069      2067      2070      2071      2075
      2071      2079      2071      2083      2075      2076      2075      2077
      2075      2078      2079      2080      2079      2081      2079      2082
      2083      2084      2083      2085      2083      2086      2071      2072
      2072      2073      2072      2074      2072      2087      2087      2088
      2087      2089      2087      2093      2094      2095      2093      2090
      2090      2094      2090      2091      2090      2092      2095      2096
      2095      2097      2095      2098      2098      2099      2098      2106
      2098      2100      2106      2107      2106      2108      2106      2109
      2100      2101      2101      2103      2101      2102      2103      2104
      2103      2105      2103      2115      2115      2116      2115      2117
      2115      2118      2118      2119      2118      2120      2118      2121
      2121      2122      2121      2123      2121      2124      2124      2125
      2124      2126      2124      2127      2127      2128      2127      2129
      2127      2130      2130      2131      2130      2132      2130      2133
      2133      2134      2133      2135      2135      2136      2135      2137
      2137      2138      2137      2139      2137      2140      2140      2141
      2140      2142      2140      2143      2143      2144      2143      2145
      2143      2146      2146      2147      2146      2148      2146      2149
      2149      2150      2149      2151      2149      2152      2152      2153
      2152      2154      2152      2155      2155      2156      2155      2157
      2155      2158      2158      2159      2158      2160      2158      2161
      2109      2110      2110      2112      2110      2111      2112      2113
      2112      2114      2112      2162      2162      2163      2162      2164
      2162      2165      2165      2166      2165      2167      2165      2168
      2168      2169      2168      2170      2168      2171      2171      2172
      2171      2173      2171      2174      2174      2175      2174      2176
      2174      2177      2177      2178      2177      2179      2177      2180
      2180      2181      2180      2182      2182      2183      2182      2184
      2184      2185      2184      2186      2184      2187      2187      2188
      2187      2189      2187      2190      2190      2191      2190      2192
      2190      2193      2193      2194      2193      2195      2193      2196
      2196      2197      2196      2198      2196      2199      2199      2200
      2199      2201      2199      2202      2202      2203      2202      2204
      2202      2205      2205      2206      2205      2207      2205      2208
      2209      2213      2209      2217      2209      2221      2213      2214
      2213      2215      2213      2216      2217      2218      2217      2219
      2217      2220      2221      2222      2221      2223      2221      2224
      2209      2210      2210      2211      2210      2212      2210      2225
      2225      2226      2225      2227      2225      2231      2232      2233
      2231      2228      2228      2232      2228      2229      2228      2230
      2233      2234      2233      2235      2233      2236      2236      2237
      2236      2244      2236      2238      2244      2245      2244      2246
      2244      2247      2238      2239      2239      2241      2239      2240
      2241      2242      2241      2243      2241      2253      2253      2254
      2253      2255      2253      2256      2256      2257      2256      2258
      2256      2259      2259      2260      2259      2261      2259      2262
      2262      2263      2262      2264      2262      2265      2265      2266
      2265      2267      2265      2268      2268      2269      2268      2270
      2268      2271      2271      2272      2271      2273      2273      2274
      2273      2275      2275      2276      2275      2277      2275      2278
      2278      2279      2278      2280      2278      2281      2281      2282
      2281      2283      2281      2284      2284      2285      2284      2286
      2284      2287      2287      2288      2287      2289      2287      2290
      2290      2291      2290      2292      2290      2293      2293      2294
      2293      2295      2293      2296      2296      2297      2296      2298
      2296      2299      2247      2248      2248      2250      2248      2249
      2250      2251      2250      2252      2250      2300      2300      2301
      2300      2302      2300      2303      2303      2304      2303      2305
      2303      2306      2306      2307      2306      2308      2306      2309
      2309      2310      2309      2311      2309      2312      2312      2313
      2312      2314      2312      2315      2315      2316      2315      2317
      2315      2318      2318      2319      2318      2320      2320      2321
      2320      2322      2322      2323      2322      2324      2322      2325
      2325      2326      2325      2327      2325      2328      2328      2329
      2328      2330      2328      2331      2331      2332      2331      2333
      2331      2334      2334      2335      2334      2336      2334      2337
      2337      2338      2337      2339      2337      2340      2340      2341
      2340      2342      2340      2343      2343      2344      2343      2345
      2343      2346      2347      2351      2347      2355      2347      2359
      2351      2352      2351      2353      2351      2354      2355      2356
      2355      2357      2355      2358      2359      2360      2359      2361
      2359      2362      2347      2348      2348      2349      2348      2350
      2348      2363      2363      2364      2363      2365      2363      2369
      2370      2371      2369      2366      2366      2370      2366      2367
      2366      2368      2371      2372      2371      2373      2371      2374
      2374      2375      2374      2382      2374      2376      2382      2383
      2382      2384      2382      2385      2376      2377      2377      2379
      2377      2378      2379      2380      2379      2381      2379      2391
      2391      2392      2391      2393      2391      2394      2394      2395
      2394      2396      2394      2397      2397      2398      2397      2399
      2397      2400      2400      2401      2400      2402      2400      2403
      2403      2404      2403      2405      2403      2406      2406      2407
      2406      2408      2406      2409      2409      2410      2409      2411
      2411      2412      2411      2413      2413      2414      2413      2415
      2413      2416      2416      2417      2416      2418      2416      2419
      2419      2420      2419      2421      2419      2422      2422      2423
      2422      2424      2422      2425      2425      2426      2425      2427
      2425      2428      2428      2429      2428      2430      2428      2431
      2431      2432      2431      2433      2431      2434      2434      2435
      2434      2436      2434      2437      2385      2386      2386      2388
      2386      2387      2388      2389      2388      2390      2388      2438
      2438      2439      2438      2440      2438      2441      2441      2442
      2441      2443      2441      2444      2444      2445      2444      2446
      2444      2447      2447      2448      2447      2449      2447      2450
      2450      2451      2450      2452      2450      2453      2453      2454
      2453      2455      2453      2456      2456      2457      2456      2458
      2458      2459      2458      2460      2460      2461      2460      2462
      2460      2463      2463      2464      2463      2465      2463      2466
      2466      2467      2466      2468      2466      2469      2469      2470
      2469      2471      2469      2472      2472      2473      2472      2474
      2472      2475      2475      2476      2475      2477      2475      2478
      2478      2479      2478      2480      2478      2481      2481      2482
      2481      2483      2481      2484      2485      2489      2485      2493
      2485      2497      2489      2490      2489      2491      2489      2492
      2493      2494      2493      2495      2493      2496      2497      2498
      2497      2499      2497      2500      2485      2486      2486      2487
      2486      2488      2486      2501      2501      2502      2501      2503
      2501      2507      2508      2509      2507      2504      2504      2508
      2504      2505      2504      2506      2509      2510      2509      2511
      2509      2512      2512      2513      2512      2520      2512      2514
      2520      2521      2520      2522      2520      2523      2514      2515
      2515      2517      2515      2516      2517      2518      2517      2519
      2517      2529      2529      2530      2529      2531      2529      2532
      2532      2533      2532      2534      2532      2535      2535      2536
      2535      2537      2535      2538      2538      2539      2538      2540
      2538      2541      2541      2542      2541      2543      2541      2544
      2544      2545      2544      2546      2544      2547      2547      2548
      2547      2549      2549      2550      2549      2551      2551      2552
      2551      2553      2551      2554      2554      2555      2554      2556
      2554      2557      2557      2558      2557      2559      2557      2560
      2560      2561      2560      2562      2560      2563      2563      2564
      2563      2565      2563      2566      2566      2567      2566      2568
      2566      2569      2569      2570      2569      2571      2569      2572
      2572      2573      2572      2574      2572      2575      2523      2524
      2524      2526      2524      2525      2526      2527      2526      2528
      2526      2576      2576      2577      2576      2578      2576      2579
      2579      2580      2579      2581      2579      2582      2582      2583
      2582      2584      2582      2585      2585      2586      2585      2587
      2585      2588      2588      2589      2588      2590      2588      2591
      2591      2592      2591      2593      2591      2594      2594      2595
      2594      2596      2596      2597      2596      2598      2598      2599
      2598      2600      2598      2601      2601      2602      2601      2603
      2601      2604      2604      2605      2604      2606      2604      2607
      2607      2608      2607      2609      2607      2610      2610      2611
      2610      2612      2610      2613      2613      2614      2613      2615
      2613      2616      2616      2617      2616      2618      2616      2619
      2619      2620      2619      2621      2619      2622      2623      2627
      2623      2631      2623      2635      2627      2628      2627      2629
      2627      2630      2631      2632      2631      2633      2631      2634
      2635      2636      2635      2637      2635      2638      2623      2624
      2624      2625      2624      2626      2624      2639      2639      2640
      2639      2641      2639      2645      2646      2647      2645      2642
      2642      2646      2642      2643      2642      2644      2647      2648
      2647      2649      2647      2650      2650      2651      2650      2658
      2650      2652      2658      2659      2658      2660      2658      2661
      2652      2653      2653      2655      2653      2654      2655      2656
      2655      2657      2655      2667      2667      2668      2667      2669
      2667      2670      2670      2671      2670      2672      2670      2673
      2673      2674      2673      2675      2673      2676      2676      2677
      2676      2678      2676      2679      2679      2680      2679      2681
      2679      2682      2682      2683      2682      2684      2682      2685
      2685      2686      2685      2687      2687      2688      2687      2689
      2689      2690      2689      2691      2689      2692      2692      2693
      2692      2694      2692      2695      2695      2696      2695      2697
      2695      2698      2698      2699      2698      2700      2698      2701
      2701      2702      2701      2703      2701      2704      2704      2705
      2704      2706      2704      2707      2707      2708      2707      2709
      2707      2710      2710      2711      2710      2712      2710      2713
      2661      2662      2662      2664      2662      2663      2664      2665
      2664      2666      2664      2714      2714      2715      2714      2716
      2714      2717      2717      2718      2717      2719      2717      2720
      2720      2721      2720      2722      2720      2723      2723      2724
      2723      2725      2723      2726      2726      2727      2726      2728
      2726      2729      2729      2730      2729      2731      2729      2732
      2732      2733      2732      2734      2734      2735      2734      2736
      2736      2737      2736      2738      2736      2739      2739      2740
      2739      2741      2739      2742      2742      2743      2742      2744
      2742      2745      2745      2746      2745      2747      2745      2748
      2748      2749      2748      2750      2748      2751      2751      2752
      2751      2753      2751      2754      2754      2755      2754      2756
      2754      2757      2757      2758      2757      2759      2757      2760
      2761      2765      2761      2769      2761      2773      2765      2766
      2765      2767      2765      2768      2769      2770      2769      2771
      2769      2772      2773      2774      2773      2775      2773      2776
      2761      2762      2762      2763      2762      2764      2762      2777
      2777      2778      2777      2779      2777      2783      2784      2785
      2783      2780      2780      2784      2780      2781      2780      2782
      2785      2786      2785      2787      2785      2788      2788      2789
      2788      2796      2788      2790      2796      2797      2796      2798
      2796      2799      2790      2791      2791      2793      2791      2792
      2793      2794      2793      2795      2793      2805      2805      2806
      2805      2807      2805      2808      2808      2809      2808      2810
      2808      2811      2811      2812      2811      2813      2811      2814
      2814      2815      2814      2816      2814      2817      2817      2818
      2817      2819      2817      2820      2820      2821      2820      2822
      2820      2823      2823      2824      2823      2825      2825      2826
      2825      2827      2827      2828      2827      2829      2827      2830
      2830      2831      2830      2832      2830      2833      2833      2834
      2833      2835      2833      2836      2836      2837      2836      2838
      2836      2839      2839      2840      2839      2841      2839      2842
      2842      2843      2842      2844      2842      2845      2845      2846
      2845      2847      2845      2848      2848      2849      2848      2850
      2848      2851      2799      2800      2800      2802      2800      2801
      2802      2803      2802      2804      2802      2852      2852      2853
      2852      2854      2852      2855      2855      2856      2855      2857
      2855      2858      2858      2859      2858      2860      2858      2861
      2861      2862      2861      2863      2861      2864      2864      2865
      2864      2866      2864      2867      2867      2868      2867      2869
      2867      2870      2870      2871      2870      2872      2872      2873
      2872      2874      2874      2875      2874      2876      2874      2877
      2877      2878      2877      2879      2877      2880      2880      2881
      2880      2882      2880      2883      2883      2884      2883      2885
      2883      2886      2886      2887      2886      2888      2886      2889
      2889      2890      2889      2891      2889      2892      2892      2893
      2892      2894      2892      2895      2895      2896      2895      2897
      2895      2898      2899      2903      2899      2907      2899      2911
      2903      2904      2903      2905      2903      2906      2907      2908
      2907      2909      2907      2910      2911      2912      2911      2913
      2911      2914      2899      2900      2900      2901      2900      2902
      2900      2915      2915      2916      2915      2917      2915      2921
      2922      2923      2921      2918      2918      2922      2918      2919
      2918      2920      2923      2924      2923      2925      2923      2926
      2926      2927      2926      2934      2926      2928      2934      2935
      2934      2936      2934      2937      2928      2929      2929      2931
      2929      2930      2931      2932      2931      2933      2931      2943
      2943      2944      2943      2945      2943      2946      2946      2947
      2946      2948      2946      2949      2949      2950      2949      2951
      2949      2952      2952      2953      2952      2954      2952      2955
      2955      2956      2955      2957      2955      2958      2958      2959
      2958      2960      2958      2961      2961      2962      2961      2963
      2963      2964      2963      2965      2965      2966      2965      2967
      2965      2968      2968      2969      2968      2970      2968      2971
      2971      2972      2971      2973      2971      2974      2974      2975
      2974      2976      2974      2977      2977      2978      2977      2979
      2977      2980      2980      2981      2980      2982      2980      2983
      2983      2984      2983      2985      2983      2986      2986      2987
      2986      2988      2986      2989      2937      2938      2938      2940
      2938      2939      2940      2941      2940      2942      2940      2990
      2990      2991      2990      2992      2990      2993      2993      2994
      2993      2995      2993      2996      2996      2997      2996      2998
      2996      2999      2999      3000      2999      3001      2999      3002
      3002      3003      3002      3004      3002      3005      3005      3006
      3005      3007      3005      3008      3008      3009      3008      3010
      3010      3011      3010      3012      3012      3013      3012      3014
      3012      3015      3015      3016      3015      3017      3015      3018
      3018      3019      3018      3020      3018      3021      3021      3022
      3021      3023      3021      3024      3024      3025      3024      3026
      3024      3027      3027      3028      3027      3029      3027      3030
      3030      3031      3030      3032      3030      3033      3033      3034
      3033      3035      3033      3036      3037      3041      3037      3045
      3037      3049      3041      3042      3041      3043      3041      3044
      3045      3046      3045      3047      3045      3048      3049      3050
      3049      3051      3049      3052      3037      3038      3038      3039
      3038      3040      3038      3053      3053      3054      3053      3055
      3053      3059      3060      3061      3059      3056      3056      3060
      3056      3057      3056      3058      3061      3062      3061      3063
      3061      3064      3064      3065      3064      3072      3064      3066
      3072      3073      3072      3074      3072      3075      3066      3067
      3067      3069      3067      3068      3069      3070      3069      3071
      3069      3081      3081      3082      3081      3083      3081      3084
      3084      3085      3084      3086      3084      3087      3087      3088
      3087      3089      3087      3090      3090      3091      3090      3092
      3090      3093      3093      3094      3093      3095      3093      3096
      3096      3097      3096      3098      3096      3099      3099      3100
      3099      3101      3101      3102      3101      3103      3103      3104
      3103      3105      3103      3106      3106      3107      3106      3108
      3106      3109      3109      3110      3109      3111      3109      3112
      3112      3113      3112      3114      3112      3115      3115      3116
      3115      3117      3115      3118      3118      3119      3118      3120
      3118      3121      3121      3122      3121      3123      3121      3124
      3124      3125      3124      3126      3124      3127      3075      3076
      3076      3078      3076      3077      3078      3079      3078      3080
      3078      3128      3128      3129      3128      3130      3128      3131
      3131      3132      3131      3133      3131      3134      3134      3135
      3134      3136      3134      3137      3137      3138      3137      3139
      3137      3140      3140      3141      3140      3142      3140      3143
      3143      3144      3143      3145      3143      3146      3146      3147
      3146      3148      3148      3149      3148      3150      3150      3151
      3150      3152      3150      3153      3153      3154      3153      3155
      3153      3156      3156      3157      3156      3158      3156      3159
      3159      3160      3159      3161      3159      3162      3162      3163
      3162      3164      3162      3165      3165      3166      3165      3167
      3165      3168      3168      3169      3168      3170      3168      3171
      3171      3172      3171      3173      3171      3174      3175      3179
      3175      3183      3175      3187      3179      3180      3179      3181
      3179      3182      3183      3184      3183      3185      3183      3186
      3187      3188      3187      3189      3187      3190      3175      3176
      3176      3177      3176      3178      3176      3191      3191      3192
      3191      3193      3191      3197      3198      3199      3197      3194
      3194      3198      3194      3195      3194      3196      3199      3200
      3199      3201      3199      3202      3202      3203      3202      3210
      3202      3204      3210      3211      3210      3212      3210      3213
      3204      3205      3205      3207      3205      3206      3207      3208
      3207      3209      3207      3219      3219      3220      3219      3221
      3219      3222      3222      3223      3222      3224      3222      3225
      3225      3226      3225      3227      3225      3228      3228      3229
      3228      3230      3228      3231      3231      3232      3231      3233
      3231      3234      3234      3235      3234      3236      3234      3237
      3237      3238      3237      3239      3239      3240      3239      3241
      3241      3242      3241      3243      3241      3244      3244      3245
      3244      3246      3244      3247      3247      3248      3247      3249
      3247      3250      3250      3251      3250      3252      3250      3253
      3253      3254      3253      3255      3253      3256      3256      3257
      3256      3258      3256      3259      3259      3260      3259      3261
      3259      3262      3262      3263      3262      3264      3262      3265
      3213      3214      3214      3216      3214      3215      3216      3217
      3216      3218      3216      3266      3266      3267      3266      3268
      3266      3269      3269      3270      3269      3271      3269      3272
      3272      3273      3272      3274      3272      3275      3275      3276
      3275      3277      3275      3278      3278      3279      3278      3280
      3278      3281      3281      3282      3281      3283      3281      3284
      3284      3285      3284      3286      3286      3287      3286      3288
      3288      3289      3288      3290      3288      3291      3291      3292
      3291      3293      3291      3294      3294      3295      3294      3296
      3294      3297      3297      3298      3297      3299      3297      3300
      3300      3301      3300      3302      3300      3303      3303      3304
      3303      3305      3303      3306      3306      3307      3306      3308
      3306      3309      3309      3310      3309      3311      3309      3312
      3313      3317      3313      3321      3313      3325      3317      3318
      3317      3319      3317      3320      3321      3322      3321      3323
      3321      3324      3325      3326      3325      3327      3325      3328
      3313      3314      3314      3315      3314      3316      3314      3329
      3329      3330      3329      3331      3329      3335      3336      3337
      3335      3332      3332      3336      3332      3333      3332      3334
      3337      3338      3337      3339      3337      3340      3340      3341
      3340      3348      3340      3342      3348      3349      3348      3350
      3348      3351      3342      3343      3343      3345      3343      3344
      3345      3346      3345      3347      3345      3357      3357      3358
      3357      3359      3357      3360      3360      3361      3360      3362
      3360      3363      3363      3364      3363      3365      3363      3366
      3366      3367      3366      3368      3366      3369      3369      3370
      3369      3371      3369      3372      3372      3373      3372      3374
      3372      3375      3375      3376      3375      3377      3377      3378
      3377      3379      3379      3380      3379      3381      3379      3382
      3382      3383      3382      3384      3382      3385      3385      3386
      3385      3387      3385      3388      3388      3389      3388      3390
      3388      3391      3391      3392      3391      3393      3391      3394
      3394      3395      3394      3396      3394      3397      3397      3398
      3397      3399      3397      3400      3400      3401      3400      3402
      3400      3403      3351      3352      3352      3354      3352      3353
      3354      3355      3354      3356      3354      3404      3404      3405
      3404      3406      3404      3407      3407      3408      3407      3409
      3407      3410      3410      3411      3410      3412      3410      3413
      3413      3414      3413      3415      3413      3416      3416      3417
      3416      3418      3416      3419      3419      3420      3419      3421
      3419      3422      3422      3423      3422      3424      3424      3425
      3424      3426      3426      3427      3426      3428      3426      3429
      3429      3430      3429      3431      3429      3432      3432      3433
      3432      3434      3432      3435      3435      3436      3435      3437
      3435      3438      3438      3439      3438      3440      3438      3441
      3441      3442      3441      3443      3441      3444      3444      3445
      3444      3446      3444      3447      3447      3448      3447      3449
      3447      3450      3451      3455      3451      3459      3451      3463
      3455      3456      3455      3457      3455      3458      3459      3460
      3459      3461      3459      3462      3463      3464      3463      3465
      3463      3466      3451      3452      3452      3453      3452      3454
      3452      3467      3467      3468      3467      3469      3467      3473
      3474      3475      3473      3470      3470      3474      3470      3471
      3470      3472      3475      3476      3475      3477      3475      3478
      3478      3479      3478      3486      3478      3480      3486      3487
      3486      3488      3486      3489      3480      3481      3481      3483
      3481      3482      3483      3484      3483      3485      3483      3495
      3495      3496      3495      3497      3495      3498      3498      3499
      3498      3500      3498      3501      3501      3502      3501      3503
      3501      3504      3504      3505      3504      3506      3504      3507
      3507      3508      3507      3509      3507      3510      3510      3511
      3510      3512      3510      3513      3513      3514      3513      3515
      3515      3516      3515      3517      3517      3518      3517      3519
      3517      3520      3520      3521      3520      3522      3520      3523
      3523      3524      3523      3525      3523      3526      3526      3527
      3526      3528      3526      3529      3529      3530      3529      3531
      3529      3532      3532      3533      3532      3534      3532      3535
      3535      3536      3535      3537      3535      3538      3538      3539
      3538      3540      3538      3541      3489      3490      3490      3492
      3490      3491      3492      3493      3492      3494      3492      3542
      3542      3543      3542      3544      3542      3545      3545      3546
      3545      3547      3545      3548      3548      3549      3548      3550
      3548      3551      3551      3552      3551      3553      3551      3554
      3554      3555      3554      3556      3554      3557      3557      3558
      3557      3559      3557      3560      3560      3561      3560      3562
      3562      3563      3562      3564      3564      3565      3564      3566
      3564      3567      3567      3568      3567      3569      3567      3570
      3570      3571      3570      3572      3570      3573      3573      3574
      3573      3575      3573      3576      3576      3577      3576      3578
      3576      3579      3579      3580      3579      3581      3579      3582
      3582      3583      3582      3584      3582      3585      3585      3586
      3585      3587      3585      3588      3589      3593      3589      3597
      3589      3601      3593      3594      3593      3595      3593      3596
      3597      3598      3597      3599      3597      3600      3601      3602
      3601      3603      3601      3604      3589      3590      3590      3591
      3590      3592      3590      3605      3605      3606      3605      3607
      3605      3611      3612      3613      3611      3608      3608      3612
      3608      3609      3608      3610      3613      3614      3613      3615
      3613      3616      3616      3617      3616      3624      3616      3618
      3624      3625      3624      3626      3624      3627      3618      3619
      3619      3621      3619      3620      3621      3622      3621      3623
      3621      3633      3633      3634      3633      3635      3633      3636
      3636      3637      3636      3638      3636      3639      3639      3640
      3639      3641      3639      3642      3642      3643      3642      3644
      3642      3645      3645      3646      3645      3647      3645      3648
      3648      3649      3648      3650      3648      3651      3651      3652
      3651      3653      3653      3654      3653      3655      3655      3656
      3655      3657      3655      3658      3658      3659      3658      3660
      3658      3661      3661      3662      3661      3663      3661      3664
      3664      3665      3664      3666      3664      3667      3667      3668
      3667      3669      3667      3670      3670      3671      3670      3672
      3670      3673      3673      3674      3673      3675      3673      3676
      3676      3677      3676      3678      3676      3679      3627      3628
      3628      3630      3628      3629      3630      3631      3630      3632
      3630      3680      3680      3681      3680      3682      3680      3683
      3683      3684      3683      3685      3683      3686      3686      3687
      3686      3688      3686      3689      3689      3690      3689      3691
      3689      3692      3692      3693      3692      3694      3692      3695
      3695      3696      3695      3697      3695      3698      3698      3699
      3698      3700      3700      3701      3700      3702      3702      3703
      3702      3704      3702      3705      3705      3706      3705      3707
      3705      3708      3708      3709      3708      3710      3708      3711
      3711      3712      3711      3713      3711      3714      3714      3715
      3714      3716      3714      3717      3717      3718      3717      3719
      3717      3720      3720      3721      3720      3722      3720      3723
      3723      3724      3723      3725      3723      3726      3727      3731
      3727      3735      3727      3739      3731      3732      3731      3733
      3731      3734      3735      3736      3735      3737      3735      3738
      3739      3740      3739      3741      3739      3742      3727      3728
      3728      3729      3728      3730      3728      3743      3743      3744
      3743      3745      3743      3749      3750      3751      3749      3746
      3746      3750      3746      3747      3746      3748      3751      3752
      3751      3753      3751      3754      3754      3755      3754      3762
      3754      3756      3762      3763      3762      3764      3762      3765
      3756      3757      3757      3759      3757      3758      3759      3760
      3759      3761      3759      3771      3771      3772      3771      3773
      3771      3774      3774      3775      3774      3776      3774      3777
      3777      3778      3777      3779      3777      3780      3780      3781
      3780      3782      3780      3783      3783      3784      3783      3785
      3783      3786      3786      3787      3786      3788      3786      3789
      3789      3790      3789      3791      3791      3792      3791      3793
      3793      3794      3793      3795      3793      3796      3796      3797
      3796      3798      3796      3799      3799      3800      3799      3801
      3799      3802      3802      3803      3802      3804      3802      3805
      3805      3806      3805      3807      3805      3808      3808      3809
      3808      3810      3808      3811      3811      3812      3811      3813
      3811      3814      3814      3815      3814      3816      3814      3817
      3765      3766      3766      3768      3766      3767      3768      3769
      3768      3770      3768      3818      3818      3819      3818      3820
      3818      3821      3821      3822      3821      3823      3821      3824
      3824      3825      3824      3826      3824      3827      3827      3828
      3827      3829      3827      3830      3830      3831      3830      3832
      3830      3833      3833      3834      3833      3835      3833      3836
      3836      3837      3836      3838      3838      3839      3838      3840
      3840      3841      3840      3842      3840      3843      3843      3844
      3843      3845      3843      3846      3846      3847      3846      3848
      3846      3849      3849      3850      3849      3851      3849      3852
      3852      3853      3852      3854      3852      3855      3855      3856
      3855      3857      3855      3858      3858      3859      3858      3860
      3858      3861      3861      3862      3861      3863      3861      3864
      3865      3869      3865      3873      3865      3877      3869      3870
      3869      3871      3869      3872      3873      3874      3873      3875
      3873      3876      3877      3878      3877      3879      3877      3880
      3865      3866      3866      3867      3866      3868      3866      3881
      3881      3882      3881      3883      3881      3887      3888      3889
      3887      3884      3884      3888      3884      3885      3884      3886
      3889      3890      3889      3891      3889      3892      3892      3893
      3892      3900      3892      3894      3900      3901      3900      3902
      3900      3903      3894      3895      3895      3897      3895      3896
      3897      3898      3897      3899      3897      3909      3909      3910
      3909      3911      3909      3912      3912      3913      3912      3914
      3912      3915      3915      3916      3915      3917      3915      3918
      3918      3919      3918      3920      3918      3921      3921      3922
      3921      3923      3921      3924      3924      3925      3924      3926
      3924      3927      3927      3928      3927      3929      3929      3930
      3929      3931      3931      3932      3931      3933      3931      3934
      3934      3935      3934      3936      3934      3937      3937      3938
      3937      3939      3937      3940      3940      3941      3940      3942
      3940      3943      3943      3944      3943      3945      3943      3946
      3946      3947      3946      3948      3946      3949      3949      3950
      3949      3951      3949      3952      3952      3953      3952      3954
      3952      3955      3903      3904      3904      3906      3904      3905
      3906      3907      3906      3908      3906      3956      3956      3957
      3956      3958      3956      3959      3959      3960      3959      3961
      3959      3962      3962      3963      3962      3964      3962      3965
      3965      3966      3965      3967      3965      3968      3968      3969
      3968      3970      3968      3971      3971      3972      3971      3973
      3971      3974      3974      3975      3974      3976      3976      3977
      3976      3978      3978      3979      3978      3980      3978      3981
      3981      3982      3981      3983      3981      3984      3984      3985
      3984      3986      3984      3987      3987      3988      3987      3989
      3987      3990      3990      3991      3990      3992      3990      3993
      3993      3994      3993      3995      3993      3996      3996      3997
      3996      3998      3996      3999      3999      4000      3999      4001
      3999      4002      4003      4007      4003      4011      4003      4015
      4007      4008      4007      4009      4007      4010      4011      4012
      4011      4013      4011      4014      4015      4016      4015      4017
      4015      4018      4003      4004      4004      4005      4004      4006
      4004      4019      4019      4020      4019      4021      4019      4025
      4026      4027      4025      4022      4022      4026      4022      4023
      4022      4024      4027      4028      4027      4029      4027      4030
      4030      4031      4030      4038      4030      4032      4038      4039
      4038      4040      4038      4041      4032      4033      4033      4035
      4033      4034      4035      4036      4035      4037      4035      4047
      4047      4048      4047      4049      4047      4050      4050      4051
      4050      4052      4050      4053      4053      4054      4053      4055
      4053      4056      4056      4057      4056      4058      4056      4059
      4059      4060      4059      4061      4059      4062      4062      4063
      4062      4064      4062      4065      4065      4066      4065      4067
      4067      4068      4067      4069      4069      4070      4069      4071
      4069      4072      4072      4073      4072      4074      4072      4075
      4075      4076      4075      4077      4075      4078      4078      4079
      4078      4080      4078      4081      4081      4082      4081      4083
      4081      4084      4084      4085      4084      4086      4084      4087
      4087      4088      4087      4089      4087      4090      4090      4091
      4090      4092      4090      4093      4041      4042      4042      4044
      4042      4043      4044      4045      4044      4046      4044      4094
      4094      4095      4094      4096      4094      4097      4097      4098
      4097      4099      4097      4100      4100      4101      4100      4102
      4100      4103      4103      4104      4103      4105      4103      4106
      4106      4107      4106      4108      4106      4109      4109      4110
      4109      4111      4109      4112      4112      4113      4112      4114
      4114      4115      4114      4116      4116      4117      4116      4118
      4116      4119      4119      4120      4119      4121      4119      4122
      4122      4123      4122      4124      4122      4125      4125      4126
      4125      4127      4125      4128      4128      4129      4128      4130
      4128      4131      4131      4132      4131      4133      4131      4134
      4134      4135      4134      4136      4134      4137      4137      4138
      4137      4139      4137      4140      4141      4145      4141      4149
      4141      4153      4145      4146      4145      4147      4145      4148
      4149      4150      4149      4151      4149      4152      4153      4154
      4153      4155      4153      4156      4141      4142      4142      4143
      4142      4144      4142      4157      4157      4158      4157      4159
      4157      4163      4164      4165      4163      4160      4160      4164
      4160      4161      4160      4162      4165      4166      4165      4167
      4165      4168      4168      4169      4168      4176      4168      4170
      4176      4177      4176      4178      4176      4179      4170      4171
      4171      4173      4171      4172      4173      4174      4173      4175
      4173      4185      4185      4186      4185      4187      4185      4188
      4188      4189      4188      4190      4188      4191      4191      4192
      4191      4193      4191      4194      4194      4195      4194      4196
      4194      4197      4197      4198      4197      4199      4197      4200
      4200      4201      4200      4202      4200      4203      4203      4204
      4203      4205      4205      4206      4205      4207      4207      4208
      4207      4209      4207      4210      4210      4211      4210      4212
      4210      4213      4213      4214      4213      4215      4213      4216
      4216      4217      4216      4218      4216      4219      4219      4220
      4219      4221      4219      4222      4222      4223      4222      4224
      4222      4225      4225      4226      4225      4227      4225      4228
      4228      4229      4228      4230      4228      4231      4179      4180
      4180      4182      4180      4181      4182      4183      4182      4184
      4182      4232      4232      4233      4232      4234      4232      4235
      4235      4236      4235      4237      4235      4238      4238      4239
      4238      4240      4238      4241      4241      4242      4241      4243
      4241      4244      4244      4245      4244      4246      4244      4247
      4247      4248      4247      4249      4247      4250      4250      4251
      4250      4252      4252      4253      4252      4254      4254      4255
      4254      4256      4254      4257      4257      4258      4257      4259
      4257      4260      4260      4261      4260      4262      4260      4263
      4263      4264      4263      4265      4263      4266      4266      4267
      4266      4268      4266      4269      4269      4270      4269      4271
      4269      4272      4272      4273      4272      4274      4272      4275
      4275      4276      4275      4277      4275      4278      4279      4283
      4279      4287      4279      4291      4283      4284      4283      4285
      4283      4286      4287      4288      4287      4289      4287      4290
      4291      4292      4291      4293      4291      4294      4279      4280
      4280      4281      4280      4282      4280      4295      4295      4296
      4295      4297      4295      4301      4302      4303      4301      4298
      4298      4302      4298      4299      4298      4300      4303      4304
      4303      4305      4303      4306      4306      4307      4306      4314
      4306      4308      4314      4315      4314      4316      4314      4317
      4308      4309      4309      4311      4309      4310      4311      4312
      4311      4313      4311      4323      4323      4324      4323      4325
      4323      4326      4326      4327      4326      4328      4326      4329
      4329      4330      4329      4331      4329      4332      4332      4333
      4332      4334      4332      4335      4335      4336      4335      4337
      4335      4338      4338      4339      4338      4340      4338      4341
      4341      4342      4341      4343      4343      4344      4343      4345
      4345      4346      4345      4347      4345      4348      4348      4349
      4348      4350      4348      4351      4351      4352      4351      4353
      4351      4354      4354      4355      4354      4356      4354      4357
      4357      4358      4357      4359      4357      4360      4360      4361
      4360      4362      4360      4363      4363      4364      4363      4365
      4363      4366      4366      4367      4366      4368      4366      4369
      4317      4318      4318      4320      4318      4319      4320      4321
      4320      4322      4320      4370      4370      4371      4370      4372
      4370      4373      4373      4374      4373      4375      4373      4376
      4376      4377      4376      4378      4376      4379      4379      4380
      4379      4381      4379      4382      4382      4383      4382      4384
      4382      4385      4385      4386      4385      4387      4385      4388
      4388      4389      4388      4390      4390      4391      4390      4392
      4392      4393      4392      4394      4392      4395      4395      4396
      4395      4397      4395      4398      4398      4399      4398      4400
      4398      4401      4401      4402      4401      4403      4401      4404
      4404      4405      4404      4406      4404      4407      4407      4408
      4407      4409      4407      4410      4410      4411      4410      4412
      4410      4413      4413      4414      4413      4415      4413      4416
      4417      4421      4417      4425      4417      4429      4421      4422
      4421      4423      4421      4424      4425      4426      4425      4427
      4425      4428      4429      4430      4429      4431      4429      4432
      4417      4418      4418      4419      4418      4420      4418      4433
      4433      4434      4433      4435      4433      4439      4440      4441
      4439      4436      4436      4440      4436      4437      4436      4438
      4441      4442      4441      4443      4441      4444      4444      4445
      4444      4452      4444      4446      4452      4453      4452      4454
      4452      4455      4446      4447      4447      4449      4447      4448
      4449      4450      4449      4451      4449      4461      4461      4462
      4461      4463      4461      4464      4464      4465      4464      4466
      4464      4467      4467      4468      4467      4469      4467      4470
      4470      4471      4470      4472      4470      4473      4473      4474
      4473      4475      4473      4476      4476      4477      4476      4478
      4476      4479      4479      4480      4479      4481      4481      4482
      4481      4483      4483      4484      4483      4485      4483      4486
      4486      4487      4486      4488      4486      4489      4489      4490
      4489      4491      4489      4492      4492      4493      4492      4494
      4492      4495      4495      4496      4495      4497      4495      4498
      4498      4499      4498      4500      4498      4501      4501      4502
      4501      4503      4501      4504      4504      4505      4504      4506
      4504      4507      4455      4456      4456      4458      4456      4457
      4458      4459      4458      4460      4458      4508      4508      4509
      4508      4510      4508      4511      4511      4512      4511      4513
      4511      4514      4514      4515      4514      4516      4514      4517
      4517      4518      4517      4519      4517      4520      4520      4521
      4520      4522      4520      4523      4523      4524      4523      4525
      4523      4526      4526      4527      4526      4528      4528      4529
      4528      4530      4530      4531      4530      4532      4530      4533
      4533      4534      4533      4535      4533      4536      4536      4537
      4536      4538      4536      4539      4539      4540      4539      4541
      4539      4542      4542      4543      4542      4544      4542      4545
      4545      4546      4545      4547      4545      4548      4548      4549
      4548      4550      4548      4551      4551      4552      4551      4553
      4551      4554      4555      4559      4555      4563      4555      4567
      4559      4560      4559      4561      4559      4562      4563      4564
      4563      4565      4563      4566      4567      4568      4567      4569
      4567      4570      4555      4556      4556      4557      4556      4558
      4556      4571      4571      4572      4571      4573      4571      4577
      4578      4579      4577      4574      4574      4578      4574      4575
      4574      4576      4579      4580      4579      4581      4579      4582
      4582      4583      4582      4590      4582      4584      4590      4591
      4590      4592      4590      4593      4584      4585      4585      4587
      4585      4586      4587      4588      4587      4589      4587      4599
      4599      4600      4599      4601      4599      4602      4602      4603
      4602      4604      4602      4605      4605      4606      4605      4607
      4605      4608      4608      4609      4608      4610      4608      4611
      4611      4612      4611      4613      4611      4614      4614      4615
      4614      4616      4614      4617      4617      4618      4617      4619
      4619      4620      4619      4621      4621      4622      4621      4623
      4621      4624      4624      4625      4624      4626      4624      4627
      4627      4628      4627      4629      4627      4630      4630      4631
      4630      4632      4630      4633      4633      4634      4633      4635
      4633      4636      4636      4637      4636      4638      4636      4639
      4639      4640      4639      4641      4639      4642      4642      4643
      4642      4644      4642      4645      4593      4594      4594      4596
      4594      4595      4596      4597      4596      4598      4596      4646
      4646      4647      4646      4648      4646      4649      4649      4650
      4649      4651      4649      4652      4652      4653      4652      4654
      4652      4655      4655      4656      4655      4657      4655      4658
      4658      4659      4658      4660      4658      4661      4661      4662
      4661      4663      4661      4664      4664      4665      4664      4666
      4666      4667      4666      4668      4668      4669      4668      4670
      4668      4671      4671      4672      4671      4673      4671      4674
      4674      4675      4674      4676      4674      4677      4677      4678
      4677      4679      4677      4680      4680      4681      4680      4682
      4680      4683      4683      4684      4683      4685      4683      4686
      4686      4687      4686      4688      4686      4689      4689      4690
      4689      4691      4689      4692      4693      4697      4693      4701
      4693      4705      4697      4698      4697      4699      4697      4700
      4701      4702      4701      4703      4701      4704      4705      4706
      4705      4707      4705      4708      4693      4694      4694      4695
      4694      4696      4694      4709      4709      4710      4709      4711
      4709      4715      4716      4717      4715      4712      4712      4716
      4712      4713      4712      4714      4717      4718      4717      4719
      4717      4720      4720      4721      4720      4728      4720      4722
      4728      4729      4728      4730      4728      4731      4722      4723
      4723      4725      4723      4724      4725      4726      4725      4727
      4725      4737      4737      4738      4737      4739      4737      4740
      4740      4741      4740      4742      4740      4743      4743      4744
      4743      4745      4743      4746      4746      4747      4746      4748
      4746      4749      4749      4750      4749      4751      4749      4752
      4752      4753      4752      4754      4752      4755      4755      4756
      4755      4757      4757      4758      4757      4759      4759      4760
      4759      4761      4759      4762      4762      4763      4762      4764
      4762      4765      4765      4766      4765      4767      4765      4768
      4768      4769      4768      4770      4768      4771      4771      4772
      4771      4773      4771      4774      4774      4775      4774      4776
      4774      4777      4777      4778      4777      4779      4777      4780
      4780      4781      4780      4782      4780      4783      4731      4732
      4732      4734      4732      4733      4734      4735      4734      4736
      4734      4784      4784      4785      4784      4786      4784      4787
      4787      4788      4787      4789      4787      4790      4790      4791
      4790      4792      4790      4793      4793      4794      4793      4795
      4793      4796      4796      4797      4796      4798      4796      4799
      4799      4800      4799      4801      4799      4802      4802      4803
      4802      4804      4804      4805      4804      4806      4806      4807
      4806      4808      4806      4809      4809      4810      4809      4811
      4809      4812      4812      4813      4812      4814      4812      4815
      4815      4816      4815      4817      4815      4818      4818      4819
      4818      4820      4818      4821      4821      4822      4821      4823
      4821      4824      4824      4825      4824      4826      4824      4827
      4827      4828      4827      4829      4827      4830      4831      4835
      4831      4839      4831      4843      4835      4836      4835      4837
      4835      4838      4839      4840      4839      4841      4839      4842
      4843      4844      4843      4845      4843      4846      4831      4832
      4832      4833      4832      4834      4832      4847      4847      4848
      4847      4849      4847      4853      4854      4855      4853      4850
      4850      4854      4850      4851      4850      4852      4855      4856
      4855      4857      4855      4858      4858      4859      4858      4866
      4858      4860      4866      4867      4866      4868      4866      4869
      4860      4861      4861      4863      4861      4862      4863      4864
      4863      4865      4863      4875      4875      4876      4875      4877
      4875      4878      4878      4879      4878      4880      4878      4881
      4881      4882      4881      4883      4881      4884      4884      4885
      4884      4886      4884      4887      4887      4888      4887      4889
      4887      4890      4890      4891      4890      4892      4890      4893
      4893      4894      4893      4895      4895      4896      4895      4897
      4897      4898      4897      4899      4897      4900      4900      4901
      4900      4902      4900      4903      4903      4904      4903      4905
      4903      4906      4906      4907      4906      4908      4906      4909
      4909      4910      4909      4911      4909      4912      4912      4913
      4912      4914      4912      4915      4915      4916      4915      4917
      4915      4918      4918      4919      4918      4920      4918      4921
      4869      4870      4870      4872      4870      4871      4872      4873
      4872      4874      4872      4922      4922      4923      4922      4924
      4922      4925      4925      4926      4925      4927      4925      4928
      4928      4929      4928      4930      4928      4931      4931      4932
      4931      4933      4931      4934      4934      4935      4934      4936
      4934      4937      4937      4938      4937      4939      4937      4940
      4940      4941      4940      4942      4942      4943      4942      4944
      4944      4945      4944      4946      4944      4947      4947      4948
      4947      4949      4947      4950      4950      4951      4950      4952
      4950      4953      4953      4954      4953      4955      4953      4956
      4956      4957      4956      4958      4956      4959      4959      4960
      4959      4961      4959      4962      4962      4963      4962      4964
      4962      4965      4965      4966      4965      4967      4965      4968
      4969      4973      4969      4977      4969      4981      4973      4974
      4973      4975      4973      4976      4977      4978      4977      4979
      4977      4980      4981      4982      4981      4983      4981      4984
      4969      4970      4970      4971      4970      4972      4970      4985
      4985      4986      4985      4987      4985      4991      4992      4993
      4991      4988      4988      4992      4988      4989      4988      4990
      4993      4994      4993      4995      4993      4996      4996      4997
      4996      5004      4996      4998      5004      5005      5004      5006
      5004      5007      4998      4999      4999      5001      4999      5000
      5001      5002      5001      5003      5001      5013      5013      5014
      5013      5015      5013      5016      5016      5017      5016      5018
      5016      5019      5019      5020      5019      5021      5019      5022
      5022      5023      5022      5024      5022      5025      5025      5026
      5025      5027      5025      5028      5028      5029      5028      5030
      5028      5031      5031      5032      5031      5033      5033      5034
      5033      5035      5035      5036      5035      5037      5035      5038
      5038      5039      5038      5040      5038      5041      5041      5042
      5041      5043      5041      5044      5044      5045      5044      5046
      5044      5047      5047      5048      5047      5049      5047      5050
      5050      5051      5050      5052      5050      5053      5053      5054
      5053      5055      5053      5056      5056      5057      5056      5058
      5056      5059      5007      5008      5008      5010      5008      5009
      5010      5011      5010      5012      5010      5060      5060      5061
      5060      5062      5060      5063      5063      5064      5063      5065
      5063      5066      5066      5067      5066      5068      5066      5069
      5069      5070      5069      5071      5069      5072      5072      5073
      5072      5074      5072      5075      5075      5076      5075      5077
      5075      5078      5078      5079      5078      5080      5080      5081
      5080      5082      5082      5083      5082      5084      5082      5085
      5085      5086      5085      5087      5085      5088      5088      5089
      5088      5090      5088      5091      5091      5092      5091      5093
      5091      5094      5094      5095      5094      5096      5094      5097
      5097      5098      5097      5099      5097      5100      5100      5101
      5100      5102      5100      5103      5103      5104      5103      5105
      5103      5106      5107      5111      5107      5115      5107      5119
      5111      5112      5111      5113      5111      5114      5115      5116
      5115      5117      5115      5118      5119      5120      5119      5121
      5119      5122      5107      5108      5108      5109      5108      5110
      5108      5123      5123      5124      5123      5125      5123      5129
      5130      5131      5129      5126      5126      5130      5126      5127
      5126      5128      5131      5132      5131      5133      5131      5134
      5134      5135      5134      5142      5134      5136      5142      5143
      5142      5144      5142      5145      5136      5137      5137      5139
      5137      5138      5139      5140      5139      5141      5139      5151
      5151      5152      5151      5153      5151      5154      5154      5155
      5154      5156      5154      5157      5157      5158      5157      5159
      5157      5160      5160      5161      5160      5162      5160      5163
      5163      5164      5163      5165      5163      5166      5166      5167
      5166      5168      5166      5169      5169      5170      5169      5171
      5171      5172      5171      5173      5173      5174      5173      5175
      5173      5176      5176      5177      5176      5178      5176      5179
      5179      5180      5179      5181      5179      5182      5182      5183
      5182      5184      5182      5185      5185      5186      5185      5187
      5185      5188      5188      5189      5188      5190      5188      5191
      5191      5192      5191      5193      5191      5194      5194      5195
      5194      5196      5194      5197      5145      5146      5146      5148
      5146      5147      5148      5149      5148      5150      5148      5198
      5198      5199      5198      5200      5198      5201      5201      5202
      5201      5203      5201      5204      5204      5205      5204      5206
      5204      5207      5207      5208      5207      5209      5207      5210
      5210      5211      5210      5212      5210      5213      5213      5214
      5213      5215      5213      5216      5216      5217      5216      5218
      5218      5219      5218      5220      5220      5221      5220      5222
      5220      5223      5223      5224      5223      5225      5223      5226
      5226      5227      5226      5228      5226      5229      5229      5230
      5229      5231      5229      5232      5232      5233      5232      5234
      5232      5235      5235      5236      5235      5237      5235      5238
      5238      5239      5238      5240      5238      5241      5241      5242
      5241      5243      5241      5244      5245      5249      5245      5253
      5245      5257      5249      5250      5249      5251      5249      5252
      5253      5254      5253      5255      5253      5256      5257      5258
      5257      5259      5257      5260      5245      5246      5246      5247
      5246      5248      5246      5261      5261      5262      5261      5263
      5261      5267      5268      5269      5267      5264      5264      5268
      5264      5265      5264      5266      5269      5270      5269      5271
      5269      5272      5272      5273      5272      5280      5272      5274
      5280      5281      5280      5282      5280      5283      5274      5275
      5275      5277      5275      5276      5277      5278      5277      5279
      5277      5289      5289      5290      5289      5291      5289      5292
      5292      5293      5292      5294      5292      5295      5295      5296
      5295      5297      5295      5298      5298      5299      5298      5300
      5298      5301      5301      5302      5301      5303      5301      5304
      5304      5305      5304      5306      5304      5307      5307      5308
      5307      5309      5309      5310      5309      5311      5311      5312
      5311      5313      5311      5314      5314      5315      5314      5316
      5314      5317      5317      5318      5317      5319      5317      5320
      5320      5321      5320      5322      5320      5323      5323      5324
      5323      5325      5323      5326      5326      5327      5326      5328
      5326      5329      5329      5330      5329      5331      5329      5332
      5332      5333      5332      5334      5332      5335      5283      5284
      5284      5286      5284      5285      5286      5287      5286      5288
      5286      5336      5336      5337      5336      5338      5336      5339
      5339      5340      5339      5341      5339      5342      5342      5343
      5342      5344      5342      5345      5345      5346      5345      5347
      5345      5348      5348      5349      5348      5350      5348      5351
      5351      5352      5351      5353      5351      5354      5354      5355
      5354      5356      5356      5357      5356      5358      5358      5359
      5358      5360      5358      5361      5361      5362      5361      5363
      5361      5364      5364      5365      5364      5366      5364      5367
      5367      5368      5367      5369      5367      5370      5370      5371
      5370      5372      5370      5373      5373      5374      5373      5375
      5373      5376      5376      5377      5376      5378      5376      5379
      5379      5380      5379      5381      5379      5382      5383      5387
      5383      5391      5383      5395      5387      5388      5387      5389
      5387      5390      5391      5392      5391      5393      5391      5394
      5395      5396      5395      5397      5395      5398      5383      5384
      5384      5385      5384      5386      5384      5399      5399      5400
      5399      5401      5399      5405      5406      5407      5405      5402
      5402      5406      5402      5403      5402      5404      5407      5408
      5407      5409      5407      5410      5410      5411      5410      5418
      5410      5412      5418      5419      5418      5420      5418      5421
      5412      5413      5413      5415      5413      5414      5415      5416
      5415      5417      5415      5427      5427      5428      5427      5429
      5427      5430      5430      5431      5430      5432      5430      5433
      5433      5434      5433      5435      5433      5436      5436      5437
      5436      5438      5436      5439      5439      5440      5439      5441
      5439      5442      5442      5443      5442      5444      5442      5445
      5445      5446      5445      5447      5447      5448      5447      5449
      5449      5450      5449      5451      5449      5452      5452      5453
      5452      5454      5452      5455      5455      5456      5455      5457
      5455      5458      5458      5459      5458      5460      5458      5461
      5461      5462      5461      5463      5461      5464      5464      5465
      5464      5466      5464      5467      5467      5468      5467      5469
      5467      5470      5470      5471      5470      5472      5470      5473
      5421      5422      5422      5424      5422      5423      5424      5425
      5424      5426      5424      5474      5474      5475      5474      5476
      5474      5477      5477      5478      5477      5479      5477      5480
      5480      5481      5480      5482      5480      5483      5483      5484
      5483      5485      5483      5486      5486      5487      5486      5488
      5486      5489      5489      5490      5489      5491      5489      5492
      5492      5493      5492      5494      5494      5495      5494      5496
      5496      5497      5496      5498      5496      5499      5499      5500
      5499      5501      5499      5502      5502      5503      5502      5504
      5502      5505      5505      5506      5505      5507      5505      5508
      5508      5509      5508      5510      5508      5511      5511      5512
      5511      5513      5511      5514      5514      5515      5514      5516
      5514      5517      5517      5518      5517      5519      5517      5520
      5521      5525      5521      5529      5521      5533      5525      5526
      5525      5527      5525      5528      5529      5530      5529      5531
      5529      5532      5533      5534      5533      5535      5533      5536
      5521      5522      5522      5523      5522      5524      5522      5537
      5537      5538      5537      5539      5537      5543      5544      5545
      5543      5540      5540      5544      5540      5541      5540      5542
      5545      5546      5545      5547      5545      5548      5548      5549
      5548      5556      5548      5550      5556      5557      5556      5558
      5556      5559      5550      5551      5551      5553      5551      5552
      5553      5554      5553      5555      5553      5565      5565      5566
      5565      5567      5565      5568      5568      5569      5568      5570
      5568      5571      5571      5572      5571      5573      5571      5574
      5574      5575      5574      5576      5574      5577      5577      5578
      5577      5579      5577      5580      5580      5581      5580      5582
      5580      5583      5583      5584      5583      5585      5585      5586
      5585      5587      5587      5588      5587      5589      5587      5590
      5590      5591      5590      5592      5590      5593      5593      5594
      5593      5595      5593      5596      5596      5597      5596      5598
      5596      5599      5599      5600      5599      5601      5599      5602
      5602      5603      5602      5604      5602      5605      5605      5606
      5605      5607      5605      5608      5608      5609      5608      5610
      5608      5611      5559      5560      5560      5562      5560      5561
      5562      5563      5562      5564      5562      5612      5612      5613
      5612      5614      5612      5615      5615      5616      5615      5617
      5615      5618      5618      5619      5618      5620      5618      5621
      5621      5622      5621      5623      5621      5624      5624      5625
      5624      5626      5624      5627      5627      5628      5627      5629
      5627      5630      5630      5631      5630      5632      5632      5633
      5632      5634      5634      5635      5634      5636      5634      5637
      5637      5638      5637      5639      5637      5640      5640      5641
      5640      5642      5640      5643      5643      5644      5643      5645
      5643      5646      5646      5647      5646      5648      5646      5649
      5649      5650      5649      5651      5649      5652      5652      5653
      5652      5654      5652      5655      5655      5656      5655      5657
      5655      5658      5659      5663      5659      5667      5659      5671
      5663      5664      5663      5665      5663      5666      5667      5668
      5667      5669      5667      5670      5671      5672      5671      5673
      5671      5674      5659      5660      5660      5661      5660      5662
      5660      5675      5675      5676      5675      5677      5675      5681
      5682      5683      5681      5678      5678      5682      5678      5679
      5678      5680      5683      5684      5683      5685      5683      5686
      5686      5687      5686      5694      5686      5688      5694      5695
      5694      5696      5694      5697      5688      5689      5689      5691
      5689      5690      5691      5692      5691      5693      5691      5703
      5703      5704      5703      5705      5703      5706      5706      5707
      5706      5708      5706      5709      5709      5710      5709      5711
      5709      5712      5712      5713      5712      5714      5712      5715
      5715      5716      5715      5717      5715      5718      5718      5719
      5718      5720      5718      5721      5721      5722      5721      5723
      5723      5724      5723      5725      5725      5726      5725      5727
      5725      5728      5728      5729      5728      5730      5728      5731
      5731      5732      5731      5733      5731      5734      5734      5735
      5734      5736      5734      5737      5737      5738      5737      5739
      5737      5740      5740      5741      5740      5742      5740      5743
      5743      5744      5743      5745      5743      5746      5746      5747
      5746      5748      5746      5749      5697      5698      5698      5700
      5698      5699      5700      5701      5700      5702      5700      5750
      5750      5751      5750      5752      5750      5753      5753      5754
      5753      5755      5753      5756      5756      5757      5756      5758
      5756      5759      5759      5760      5759      5761      5759      5762
      5762      5763      5762      5764      5762      5765      5765      5766
      5765      5767      5765      5768      5768      5769      5768      5770
      5770      5771      5770      5772      5772      5773      5772      5774
      5772      5775      5775      5776      5775      5777      5775      5778
      5778      5779      5778      5780      5778      5781      5781      5782
      5781      5783      5781      5784      5784      5785      5784      5786
      5784      5787      5787      5788      5787      5789      5787      5790
      5790      5791      5790      5792      5790      5793      5793      5794
      5793      5795      5793      5796      5797      5801      5797      5805
      5797      5809      5801      5802      5801      5803      5801      5804
      5805      5806      5805      5807      5805      5808      5809      5810
      5809      5811      5809      5812      5797      5798      5798      5799
      5798      5800      5798      5813      5813      5814      5813      5815
      5813      5819      5820      5821      5819      5816      5816      5820
      5816      5817      5816      5818      5821      5822      5821      5823
      5821      5824      5824      5825      5824      5832      5824      5826
      5832      5833      5832      5834      5832      5835      5826      5827
      5827      5829      5827      5828      5829      5830      5829      5831
      5829      5841      5841      5842      5841      5843      5841      5844
      5844      5845      5844      5846      5844      5847      5847      5848
      5847      5849      5847      5850      5850      5851      5850      5852
      5850      5853      5853      5854      5853      5855      5853      5856
      5856      5857      5856      5858      5856      5859      5859      5860
      5859      5861      5861      5862      5861      5863      5863      5864
      5863      5865      5863      5866      5866      5867      5866      5868
      5866      5869      5869      5870      5869      5871      5869      5872
      5872      5873      5872      5874      5872      5875      5875      5876
      5875      5877      5875      5878      5878      5879      5878      5880
      5878      5881      5881      5882      5881      5883      5881      5884
      5884      5885      5884      5886      5884      5887      5835      5836
      5836      5838      5836      5837      5838      5839      5838      5840
      5838      5888      5888      5889      5888      5890      5888      5891
      5891      5892      5891      5893      5891      5894      5894      5895
      5894      5896      5894      5897      5897      5898      5897      5899
      5897      5900      5900      5901      5900      5902      5900      5903
      5903      5904      5903      5905      5903      5906      5906      5907
      5906      5908      5908      5909      5908      5910      5910      5911
      5910      5912      5910      5913      5913      5914      5913      5915
      5913      5916      5916      5917      5916      5918      5916      5919
      5919      5920      5919      5921      5919      5922      5922      5923
      5922      5924      5922      5925      5925      5926      5925      5927
      5925      5928      5928      5929      5928      5930      5928      5931
      5931      5932      5931      5933      5931      5934      5935      5939
      5935      5943      5935      5947      5939      5940      5939      5941
      5939      5942      5943      5944      5943      5945      5943      5946
      5947      5948      5947      5949      5947      5950      5935      5936
      5936      5937      5936      5938      5936      5951      5951      5952
      5951      5953      5951      5957      5958      5959      5957      5954
      5954      5958      5954      5955      5954      5956      5959      5960
      5959      5961      5959      5962      5962      5963      5962      5970
      5962      5964      5970      5971      5970      5972      5970      5973
      5964      5965      5965      5967      5965      5966      5967      5968
      5967      5969      5967      5979      5979      5980      5979      5981
      5979      5982      5982      5983      5982      5984      5982      5985
      5985      5986      5985      5987      5985      5988      5988      5989
      5988      5990      5988      5991      5991      5992      5991      5993
      5991      5994      5994      5995      5994      5996      5994      5997
      5997      5998      5997      5999      5999      6000      5999      6001
      6001      6002      6001      6003      6001      6004      6004      6005
      6004      6006      6004      6007      6007      6008      6007      6009
      6007      6010      6010      6011      6010      6012      6010      6013
      6013      6014      6013      6015      6013      6016      6016      6017
      6016      6018      6016      6019      6019      6020      6019      6021
      6019      6022      6022      6023      6022      6024      6022      6025
      5973      5974      5974      5976      5974      5975      5976      5977
      5976      5978      5976      6026      6026      6027      6026      6028
      6026      6029      6029      6030      6029      6031      6029      6032
      6032      6033      6032      6034      6032      6035      6035      6036
      6035      6037      6035      6038      6038      6039      6038      6040
      6038      6041      6041      6042      6041      6043      6041      6044
      6044      6045      6044      6046      6046      6047      6046      6048
      6048      6049      6048      6050      6048      6051      6051      6052
      6051      6053      6051      6054      6054      6055      6054      6056
      6054      6057      6057      6058      6057      6059      6057      6060
      6060      6061      6060      6062      6060      6063      6063      6064
      6063      6065      6063      6066      6066      6067      6066      6068
      6066      6069      6069      6070      6069      6071      6069      6072
      6073      6077      6073      6081      6073      6085      6077      6078
      6077      6079      6077      6080      6081      6082      6081      6083
      6081      6084      6085      6086      6085      6087      6085      6088
      6073      6074      6074      6075      6074      6076      6074      6089
      6089      6090      6089      6091      6089      6095      6096      6097
      6095      6092      6092      6096      6092      6093      6092      6094
      6097      6098      6097      6099      6097      6100      6100      6101
      6100      6108      6100      6102      6108      6109      6108      6110
      6108      6111      6102      6103      6103      6105      6103      6104
      6105      6106      6105      6107      6105      6117      6117      6118
      6117      6119      6117      6120      6120      6121      6120      6122
      6120      6123      6123      6124      6123      6125      6123      6126
      6126      6127      6126      6128      6126      6129      6129      6130
      6129      6131      6129      6132      6132      6133      6132      6134
      6132      6135      6135      6136      6135      6137      6137      6138
      6137      6139      6139      6140      6139      6141      6139      6142
      6142      6143      6142      6144      6142      6145      6145      6146
      6145      6147      6145      6148      6148      6149      6148      6150
      6148      6151      6151      6152      6151      6153      6151      6154
      6154      6155      6154      6156      6154      6157      6157      6158
      6157      6159      6157      6160      6160      6161      6160      6162
      6160      6163      6111      6112      6112      6114      6112      6113
      6114      6115      6114      6116      6114      6164      6164      6165
      6164      6166      6164      6167      6167      6168      6167      6169
      6167      6170      6170      6171      6170      6172      6170      6173
      6173      6174      6173      6175      6173      6176      6176      6177
      6176      6178      6176      6179      6179      6180      6179      6181
      6179      6182      6182      6183      6182      6184      6184      6185
      6184      6186      6186      6187      6186      6188      6186      6189
      6189      6190      6189      6191      6189      6192      6192      6193
      6192      6194      6192      6195      6195      6196      6195      6197
      6195      6198      6198      6199      6198      6200      6198      6201
      6201      6202      6201      6203      6201      6204      6204      6205
      6204      6206      6204      6207      6207      6208      6207      6209
      6207      6210      6211      6215      6211      6219      6211      6223
      6215      6216      6215      6217      6215      6218      6219      6220
      6219      6221      6219      6222      6223      6224      6223      6225
      6223      6226      6211      6212      6212      6213      6212      6214
      6212      6227      6227      6228      6227      6229      6227      6233
      6234      6235      6233      6230      6230      6234      6230      6231
      6230      6232      6235      6236      6235      6237      6235      6238
      6238      6239      6238      6246      6238      6240      6246      6247
      6246      6248      6246      6249      6240      6241      6241      6243
      6241      6242      6243      6244      6243      6245      6243      6255
      6255      6256      6255      6257      6255      6258      6258      6259
      6258      6260      6258      6261      6261      6262      6261      6263
      6261      6264      6264      6265      6264      6266      6264      6267
      6267      6268      6267      6269      6267      6270      6270      6271
      6270      6272      6270      6273      6273      6274      6273      6275
      6275      6276      6275      6277      6277      6278      6277      6279
      6277      6280      6280      6281      6280      6282      6280      6283
      6283      6284      6283      6285      6283      6286      6286      6287
      6286      6288      6286      6289      6289      6290      6289      6291
      6289      6292      6292      6293      6292      6294      6292      6295
      6295      6296      6295      6297      6295      6298      6298      6299
      6298      6300      6298      6301      6249      6250      6250      6252
      6250      6251      6252      6253      6252      6254      6252      6302
      6302      6303      6302      6304      6302      6305      6305      6306
      6305      6307      6305      6308      6308      6309      6308      6310
      6308      6311      6311      6312      6311      6313      6311      6314
      6314      6315      6314      6316      6314      6317      6317      6318
      6317      6319      6317      6320      6320      6321      6320      6322
      6322      6323      6322      6324      6324      6325      6324      6326
      6324      6327      6327      6328      6327      6329      6327      6330
      6330      6331      6330      6332      6330      6333      6333      6334
      6333      6335      6333      6336      6336      6337      6336      6338
      6336      6339      6339      6340      6339      6341      6339      6342
      6342      6343      6342      6344      6342      6345      6345      6346
      6345      6347      6345      6348      6349      6353      6349      6357
      6349      6361      6353      6354      6353      6355      6353      6356
      6357      6358      6357      6359      6357      6360      6361      6362
      6361      6363      6361      6364      6349      6350      6350      6351
      6350      6352      6350      6365      6365      6366      6365      6367
      6365      6371      6372      6373      6371      6368      6368      6372
      6368      6369      6368      6370      6373      6374      6373      6375
      6373      6376      6376      6377      6376      6384      6376      6378
      6384      6385      6384      6386      6384      6387      6378      6379
      6379      6381      6379      6380      6381      6382      6381      6383
      6381      6393      6393      6394      6393      6395      6393      6396
      6396      6397      6396      6398      6396      6399      6399      6400
      6399      6401      6399      6402      6402      6403      6402      6404
      6402      6405      6405      6406      6405      6407      6405      6408
      6408      6409      6408      6410      6408      6411      6411      6412
      6411      6413      6413      6414      6413      6415      6415      6416
      6415      6417      6415      6418      6418      6419      6418      6420
      6418      6421      6421      6422      6421      6423      6421      6424
      6424      6425      6424      6426      6424      6427      6427      6428
      6427      6429      6427      6430      6430      6431      6430      6432
      6430      6433      6433      6434      6433      6435      6433      6436
      6436      6437      6436      6438      6436      6439      6387      6388
      6388      6390      6388      6389      6390      6391      6390      6392
      6390      6440      6440      6441      6440      6442      6440      6443
      6443      6444      6443      6445      6443      6446      6446      6447
      6446      6448      6446      6449      6449      6450      6449      6451
      6449      6452      6452      6453      6452      6454      6452      6455
      6455      6456      6455      6457      6455      6458      6458      6459
      6458      6460      6460      6461      6460      6462      6462      6463
      6462      6464      6462      6465      6465      6466      6465      6467
      6465      6468      6468      6469      6468      6470      6468      6471
      6471      6472      6471      6473      6471      6474      6474      6475
      6474      6476      6474      6477      6477      6478      6477      6479
      6477      6480      6480      6481      6480      6482      6480      6483
      6483      6484      6483      6485      6483      6486      6487      6491
      6487      6495      6487      6499      6491      6492      6491      6493
      6491      6494      6495      6496      6495      6497      6495      6498
      6499      6500      6499      6501      6499      6502      6487      6488
      6488      6489      6488      6490      6488      6503      6503      6504
      6503      6505      6503      6509      6510      6511      6509      6506
      6506      6510      6506      6507      6506      6508      6511      6512
      6511      6513      6511      6514      6514      6515      6514      6522
      6514      6516      6522      6523      6522      6524      6522      6525
      6516      6517      6517      6519      6517      6518      6519      6520
      6519      6521      6519      6531      6531      6532      6531      6533
      6531      6534      6534      6535      6534      6536      6534      6537
      6537      6538      6537      6539      6537      6540      6540      6541
      6540      6542      6540      6543      6543      6544      6543      6545
      6543      6546      6546      6547      6546      6548      6546      6549
      6549      6550      6549      6551      6551      6552      6551      6553
      6553      6554      6553      6555      6553      6556      6556      6557
      6556      6558      6556      6559      6559      6560      6559      6561
      6559      6562      6562      6563      6562      6564      6562      6565
      6565      6566      6565      6567      6565      6568      6568      6569
      6568      6570      6568      6571      6571      6572      6571      6573
      6571      6574      6574      6575      6574      6576      6574      6577
      6525      6526      6526      6528      6526      6527      6528      6529
      6528      6530      6528      6578      6578      6579      6578      6580
      6578      6581      6581      6582      6581      6583      6581      6584
      6584      6585      6584      6586      6584      6587      6587      6588
      6587      6589      6587      6590      6590      6591      6590      6592
      6590      6593      6593      6594      6593      6595      6593      6596
      6596      6597      6596      6598      6598      6599      6598      6600
      6600      6601      6600      6602      6600      6603      6603      6604
      6603      6605      6603      6606      6606      6607      6606      6608
      6606      6609      6609      6610      6609      6611      6609      6612
      6612      6613      6612      6614      6612      6615      6615      6616
      6615      6617      6615      6618      6618      6619      6618      6620
      6618      6621      6621      6622      6621      6623      6621      6624
      6625      6629      6625      6633      6625      6637      6629      6630
      6629      6631      6629      6632      6633      6634      6633      6635
      6633      6636      6637      6638      6637      6639      6637      6640
      6625      6626      6626      6627      6626      6628      6626      6641
      6641      6642      6641      6643      6641      6647      6648      6649
      6647      6644      6644      6648      6644      6645      6644      6646
      6649      6650      6649      6651      6649      6652      6652      6653
      6652      6660      6652      6654      6660      6661      6660      6662
      6660      6663      6654      6655      6655      6657      6655      6656
      6657      6658      6657      6659      6657      6669      6669      6670
      6669      6671      6669      6672      6672      6673      6672      6674
      6672      6675      6675      6676      6675      6677      6675      6678
      6678      6679      6678      6680      6678      6681      6681      6682
      6681      6683      6681      6684      6684      6685      6684      6686
      6684      6687      6687      6688      6687      6689      6689      6690
      6689      6691      6691      6692      6691      6693      6691      6694
      6694      6695      6694      6696      6694      6697      6697      6698
      6697      6699      6697      6700      6700      6701      6700      6702
      6700      6703      6703      6704      6703      6705      6703      6706
      6706      6707      6706      6708      6706      6709      6709      6710
      6709      6711      6709      6712      6712      6713      6712      6714
      6712      6715      6663      6664      6664      6666      6664      6665
      6666      6667      6666      6668      6666      6716      6716      6717
      6716      6718      6716      6719      6719      6720      6719      6721
      6719      6722      6722      6723      6722      6724      6722      6725
      6725      6726      6725      6727      6725      6728      6728      6729
      6728      6730      6728      6731      6731      6732      6731      6733
      6731      6734      6734      6735      6734      6736      6736      6737
      6736      6738      6738      6739      6738      6740      6738      6741
      6741      6742      6741      6743      6741      6744      6744      6745
      6744      6746      6744      6747      6747      6748      6747      6749
      6747      6750      6750      6751      6750      6752      6750      6753
      6753      6754      6753      6755      6753      6756      6756      6757
      6756      6758      6756      6759      6759      6760      6759      6761
      6759      6762      6763      6767      6763      6771      6763      6775
      6767      6768      6767      6769      6767      6770      6771      6772
      6771      6773      6771      6774      6775      6776      6775      6777
      6775      6778      6763      6764      6764      6765      6764      6766
      6764      6779      6779      6780      6779      6781      6779      6785
      6786      6787      6785      6782      6782      6786      6782      6783
      6782      6784      6787      6788      6787      6789      6787      6790
      6790      6791      6790      6798      6790      6792      6798      6799
      6798      6800      6798      6801      6792      6793      6793      6795
      6793      6794      6795      6796      6795      6797      6795      6807
      6807      6808      6807      6809      6807      6810      6810      6811
      6810      6812      6810      6813      6813      6814      6813      6815
      6813      6816      6816      6817      6816      6818      6816      6819
      6819      6820      6819      6821      6819      6822      6822      6823
      6822      6824      6822      6825      6825      6826      6825      6827
      6827      6828      6827      6829      6829      6830      6829      6831
      6829      6832      6832      6833      6832      6834      6832      6835
      6835      6836      6835      6837      6835      6838      6838      6839
      6838      6840      6838      6841      6841      6842      6841      6843
      6841      6844      6844      6845      6844      6846      6844      6847
      6847      6848      6847      6849      6847      6850      6850      6851
      6850      6852      6850      6853      6801      6802      6802      6804
      6802      6803      6804      6805      6804      6806      6804      6854
      6854      6855      6854      6856      6854      6857      6857      6858
      6857      6859      6857      6860      6860      6861      6860      6862
      6860      6863      6863      6864      6863      6865      6863      6866
      6866      6867      6866      6868      6866      6869      6869      6870
      6869      6871      6869      6872      6872      6873      6872      6874
      6874      6875      6874      6876      6876      6877      6876      6878
      6876      6879      6879      6880      6879      6881      6879      6882
      6882      6883      6882      6884      6882      6885      6885      6886
      6885      6887      6885      6888      6888      6889      6888      6890
      6888      6891      6891      6892      6891      6893      6891      6894
      6894      6895      6894      6896      6894      6897      6897      6898
      6897      6899      6897      6900      6901      6905      6901      6909
      6901      6913      6905      6906      6905      6907      6905      6908
      6909      6910      6909      6911      6909      6912      6913      6914
      6913      6915      6913      6916      6901      6902      6902      6903
      6902      6904      6902      6917      6917      6918      6917      6919
      6917      6923      6924      6925      6923      6920      6920      6924
      6920      6921      6920      6922      6925      6926      6925      6927
      6925      6928      6928      6929      6928      6936      6928      6930
      6936      6937      6936      6938      6936      6939      6930      6931
      6931      6933      6931      6932      6933      6934      6933      6935
      6933      6945      6945      6946      6945      6947      6945      6948
      6948      6949      6948      6950      6948      6951      6951      6952
      6951      6953      6951      6954      6954      6955      6954      6956
      6954      6957      6957      6958      6957      6959      6957      6960
      6960      6961      6960      6962      6960      6963      6963      6964
      6963      6965      6965      6966      6965      6967      6967      6968
      6967      6969      6967      6970      6970      6971      6970      6972
      6970      6973      6973      6974      6973      6975      6973      6976
      6976      6977      6976      6978      6976      6979      6979      6980
      6979      6981      6979      6982      6982      6983      6982      6984
      6982      6985      6985      6986      6985      6987      6985      6988
      6988      6989      6988      6990      6988      6991      6939      6940
      6940      6942      6940      6941      6942      6943      6942      6944
      6942      6992      6992      6993      6992      6994      6992      6995
      6995      6996      6995      6997      6995      6998      6998      6999
      6998      7000      6998      7001      7001      7002      7001      7003
      7001      7004      7004      7005      7004      7006      7004      7007
      7007      7008      7007      7009      7007      7010      7010      7011
      7010      7012      7012      7013      7012      7014      7014      7015
      7014      7016      7014      7017      7017      7018      7017      7019
      7017      7020      7020      7021      7020      7022      7020      7023
      7023      7024      7023      7025      7023      7026      7026      7027
      7026      7028      7026      7029      7029      7030      7029      7031
      7029      7032      7032      7033      7032      7034      7032      7035
      7035      7036      7035      7037      7035      7038      7039      7043
      7039      7047      7039      7051      7043      7044      7043      7045
      7043      7046      7047      7048      7047      7049      7047      7050
      7051      7052      7051      7053      7051      7054      7039      7040
      7040      7041      7040      7042      7040      7055      7055      7056
      7055      7057      7055      7061      7062      7063      7061      7058
      7058      7062      7058      7059      7058      7060      7063      7064
      7063      7065      7063      7066      7066      7067      7066      7074
      7066      7068      7074      7075      7074      7076      7074      7077
      7068      7069      7069      7071      7069      7070      7071      7072
      7071      7073      7071      7083      7083      7084      7083      7085
      7083      7086      7086      7087      7086      7088      7086      7089
      7089      7090      7089      7091      7089      7092      7092      7093
      7092      7094      7092      7095      7095      7096      7095      7097
      7095      7098      7098      7099      7098      7100      7098      7101
      7101      7102      7101      7103      7103      7104      7103      7105
      7105      7106      7105      7107      7105      7108      7108      7109
      7108      7110      7108      7111      7111      7112      7111      7113
      7111      7114      7114      7115      7114      7116      7114      7117
      7117      7118      7117      7119      7117      7120      7120      7121
      7120      7122      7120      7123      7123      7124      7123      7125
      7123      7126      7126      7127      7126      7128      7126      7129
      7077      7078      7078      7080      7078      7079      7080      7081
      7080      7082      7080      7130      7130      7131      7130      7132
      7130      7133      7133      7134      7133      7135      7133      7136
      7136      7137      7136      7138      7136      7139      7139      7140
      7139      7141      7139      7142      7142      7143      7142      7144
      7142      7145      7145      7146      7145      7147      7145      7148
      7148      7149      7148      7150      7150      7151      7150      7152
      7152      7153      7152      7154      7152      7155      7155      7156
      7155      7157      7155      7158      7158      7159      7158      7160
      7158      7161      7161      7162      7161      7163      7161      7164
      7164      7165      7164      7166      7164      7167      7167      7168
      7167      7169      7167      7170      7170      7171      7170      7172
      7170      7173      7173      7174      7173      7175      7173      7176
      7177      7181      7177      7185      7177      7189      7181      7182
      7181      7183      7181      7184      7185      7186      7185      7187
      7185      7188      7189      7190      7189      7191      7189      7192
      7177      7178      7178      7179      7178      7180      7178      7193
      7193      7194      7193      7195      7193      7199      7200      7201
      7199      7196      7196      7200      7196      7197      7196      7198
      7201      7202      7201      7203      7201      7204      7204      7205
      7204      7212      7204      7206      7212      7213      7212      7214
      7212      7215      7206      7207      7207      7209      7207      7208
      7209      7210      7209      7211      7209      7221      7221      7222
      7221      7223      7221      7224      7224      7225      7224      7226
      7224      7227      7227      7228      7227      7229      7227      7230
      7230      7231      7230      7232      7230      7233      7233      7234
      7233      7235      7233      7236      7236      7237      7236      7238
      7236      7239      7239      7240      7239      7241      7241      7242
      7241      7243      7243      7244      7243      7245      7243      7246
      7246      7247      7246      7248      7246      7249      7249      7250
      7249      7251      7249      7252      7252      7253      7252      7254
      7252      7255      7255      7256      7255      7257      7255      7258
      7258      7259      7258      7260      7258      7261      7261      7262
      7261      7263      7261      7264      7264      7265      7264      7266
      7264      7267      7215      7216      7216      7218      7216      7217
      7218      7219      7218      7220      7218      7268      7268      7269
      7268      7270      7268      7271      7271      7272      7271      7273
      7271      7274      7274      7275      7274      7276      7274      7277
      7277      7278      7277      7279      7277      7280      7280      7281
      7280      7282      7280      7283      7283      7284      7283      7285
      7283      7286      7286      7287      7286      7288      7288      7289
      7288      7290      7290      7291      7290      7292      7290      7293
      7293      7294      7293      7295      7293      7296      7296      7297
      7296      7298      7296      7299      7299      7300      7299      7301
      7299      7302      7302      7303      7302      7304      7302      7305
      7305      7306      7305      7307      7305      7308      7308      7309
      7308      7310      7308      7311      7311      7312      7311      7313
      7311      7314      7315      7319      7315      7323      7315      7327
      7319      7320      7319      7321      7319      7322      7323      7324
      7323      7325      7323      7326      7327      7328      7327      7329
      7327      7330      7315      7316      7316      7317      7316      7318
      7316      7331      7331      7332      7331      7333      7331      7337
      7338      7339      7337      7334      7334      7338      7334      7335
      7334      7336      7339      7340      7339      7341      7339      7342
      7342      7343      7342      7350      7342      7344      7350      7351
      7350      7352      7350      7353      7344      7345      7345      7347
      7345      7346      7347      7348      7347      7349      7347      7359
      7359      7360      7359      7361      7359      7362      7362      7363
      7362      7364      7362      7365      7365      7366      7365      7367
      7365      7368      7368      7369      7368      7370      7368      7371
      7371      7372      7371      7373      7371      7374      7374      7375
      7374      7376      7374      7377      7377      7378      7377      7379
      7379      7380      7379      7381      7381      7382      7381      7383
      7381      7384      7384      7385      7384      7386      7384      7387
      7387      7388      7387      7389      7387      7390      7390      7391
      7390      7392      7390      7393      7393      7394      7393      7395
      7393      7396      7396      7397      7396      7398      7396      7399
      7399      7400      7399      7401      7399      7402      7402      7403
      7402      7404      7402      7405      7353      7354      7354      7356
      7354      7355      7356      7357      7356      7358      7356      7406
      7406      7407      7406      7408      7406      7409      7409      7410
      7409      7411      7409      7412      7412      7413      7412      7414
      7412      7415      7415      7416      7415      7417      7415      7418
      7418      7419      7418      7420      7418      7421      7421      7422
      7421      7423      7421      7424      7424      7425      7424      7426
      7426      7427      7426      7428      7428      7429      7428      7430
      7428      7431      7431      7432      7431      7433      7431      7434
      7434      7435      7434      7436      7434      7437      7437      7438
      7437      7439      7437      7440      7440      7441      7440      7442
      7440      7443      7443      7444      7443      7445      7443      7446
      7446      7447      7446      7448      7446      7449      7449      7450
      7449      7451      7449      7452      7453      7457      7453      7461
      7453      7465      7457      7458      7457      7459      7457      7460
      7461      7462      7461      7463      7461      7464      7465      7466
      7465      7467      7465      7468      7453      7454      7454      7455
      7454      7456      7454      7469      7469      7470      7469      7471
      7469      7475      7476      7477      7475      7472      7472      7476
      7472      7473      7472      7474      7477      7478      7477      7479
      7477      7480      7480      7481      7480      7488      7480      7482
      7488      7489      7488      7490      7488      7491      7482      7483
      7483      7485      7483      7484      7485      7486      7485      7487
      7485      7497      7497      7498      7497      7499      7497      7500
      7500      7501      7500      7502      7500      7503      7503      7504
      7503      7505      7503      7506      7506      7507      7506      7508
      7506      7509      7509      7510      7509      7511      7509      7512
      7512      7513      7512      7514      7512      7515      7515      7516
      7515      7517      7517      7518      7517      7519      7519      7520
      7519      7521      7519      7522      7522      7523      7522      7524
      7522      7525      7525      7526      7525      7527      7525      7528
      7528      7529      7528      7530      7528      7531      7531      7532
      7531      7533      7531      7534      7534      7535      7534      7536
      7534      7537      7537      7538      7537      7539      7537      7540
      7540      7541      7540      7542      7540      7543      7491      7492
      7492      7494      7492      7493      7494      7495      7494      7496
      7494      7544      7544      7545      7544      7546      7544      7547
      7547      7548      7547      7549      7547      7550      7550      7551
      7550      7552      7550      7553      7553      7554      7553      7555
      7553      7556      7556      7557      7556      7558      7556      7559
      7559      7560      7559      7561      7559      7562      7562      7563
      7562      7564      7564      7565      7564      7566      7566      7567
      7566      7568      7566      7569      7569      7570      7569      7571
      7569      7572      7572      7573      7572      7574      7572      7575
      7575      7576      7575      7577      7575      7578      7578      7579
      7578      7580      7578      7581      7581      7582      7581      7583
      7581      7584      7584      7585      7584      7586      7584      7587
      7587      7588      7587      7589      7587      7590      7591      7595
      7591      7599      7591      7603      7595      7596      7595      7597
      7595      7598      7599      7600      7599      7601      7599      7602
      7603      7604      7603      7605      7603      7606      7591      7592
      7592      7593      7592      7594      7592      7607      7607      7608
      7607      7609      7607      7613      7614      7615      7613      7610
      7610      7614      7610      7611      7610      7612      7615      7616
      7615      7617      7615      7618      7618      7619      7618      7626
      7618      7620      7626      7627      7626      7628      7626      7629
      7620      7621      7621      7623      7621      7622      7623      7624
      7623      7625      7623      7635      7635      7636      7635      7637
      7635      7638      7638      7639      7638      7640      7638      7641
      7641      7642      7641      7643      7641      7644      7644      7645
      7644      7646      7644      7647      7647      7648      7647      7649
      7647      7650      7650      7651      7650      7652      7650      7653
      7653      7654      7653      7655      7655      7656      7655      7657
      7657      7658      7657      7659      7657      7660      7660      7661
      7660      7662      7660      7663      7663      7664      7663      7665
      7663      7666      7666      7667      7666      7668      7666      7669
      7669      7670      7669      7671      7669      7672      7672      7673
      7672      7674      7672      7675      7675      7676      7675      7677
      7675      7678      7678      7679      7678      7680      7678      7681
      7629      7630      7630      7632      7630      7631      7632      7633
      7632      7634      7632      7682      7682      7683      7682      7684
      7682      7685      7685      7686      7685      7687      7685      7688
      7688      7689      7688      7690      7688      7691      7691      7692
      7691      7693      7691      7694      7694      7695      7694      7696
      7694      7697      7697      7698      7697      7699      7697      7700
      7700      7701      7700      7702      7702      7703      7702      7704
      7704      7705      7704      7706      7704      7707      7707      7708
      7707      7709      7707      7710      7710      7711      7710      7712
      7710      7713      7713      7714      7713      7715      7713      7716
      7716      7717      7716      7718      7716      7719      7719      7720
      7719      7721      7719      7722      7722      7723      7722      7724
      7722      7725      7725      7726      7725      7727      7725      7728
      7729      7733      7729      7737      7729      7741      7733      7734
      7733      7735      7733      7736      7737      7738      7737      7739
      7737      7740      7741      7742      7741      7743      7741      7744
      7729      7730      7730      7731      7730      7732      7730      7745
      7745      7746      7745      7747      7745      7751      7752      7753
      7751      7748      7748      7752      7748      7749      7748      7750
      7753      7754      7753      7755      7753      7756      7756      7757
      7756      7764      7756      7758      7764      7765      7764      7766
      7764      7767      7758      7759      7759      7761      7759      7760
      7761      7762      7761      7763      7761      7773      7773      7774
      7773      7775      7773      7776      7776      7777      7776      7778
      7776      7779      7779      7780      7779      7781      7779      7782
      7782      7783      7782      7784      7782      7785      7785      7786
      7785      7787      7785      7788      7788      7789      7788      7790
      7788      7791      7791      7792      7791      7793      7793      7794
      7793      7795      7795      7796      7795      7797      7795      7798
      7798      7799      7798      7800      7798      7801      7801      7802
      7801      7803      7801      7804      7804      7805      7804      7806
      7804      7807      7807      7808      7807      7809      7807      7810
      7810      7811      7810      7812      7810      7813      7813      7814
      7813      7815      7813      7816      7816      7817      7816      7818
      7816      7819      7767      7768      7768      7770      7768      7769
      7770      7771      7770      7772      7770      7820      7820      7821
      7820      7822      7820      7823      7823      7824      7823      7825
      7823      7826      7826      7827      7826      7828      7826      7829
      7829      7830      7829      7831      7829      7832      7832      7833
      7832      7834      7832      7835      7835      7836      7835      7837
      7835      7838      7838      7839      7838      7840      7840      7841
      7840      7842      7842      7843      7842      7844      7842      7845
      7845      7846      7845      7847      7845      7848      7848      7849
      7848      7850      7848      7851      7851      7852      7851      7853
      7851      7854      7854      7855      7854      7856      7854      7857
      7857      7858      7857      7859      7857      7860      7860      7861
      7860      7862      7860      7863      7863      7864      7863      7865
      7863      7866      7867      7871      7867      7875      7867      7879
      7871      7872      7871      7873      7871      7874      7875      7876
      7875      7877      7875      7878      7879      7880      7879      7881
      7879      7882      7867      7868      7868      7869      7868      7870
      7868      7883      7883      7884      7883      7885      7883      7889
      7890      7891      7889      7886      7886      7890      7886      7887
      7886      7888      7891      7892      7891      7893      7891      7894
      7894      7895      7894      7902      7894      7896      7902      7903
      7902      7904      7902      7905      7896      7897      7897      7899
      7897      7898      7899      7900      7899      7901      7899      7911
      7911      7912      7911      7913      7911      7914      7914      7915
      7914      7916      7914      7917      7917      7918      7917      7919
      7917      7920      7920      7921      7920      7922      7920      7923
      7923      7924      7923      7925      7923      7926      7926      7927
      7926      7928      7926      7929      7929      7930      7929      7931
      7931      7932      7931      7933      7933      7934      7933      7935
      7933      7936      7936      7937      7936      7938      7936      7939
      7939      7940      7939      7941      7939      7942      7942      7943
      7942      7944      7942      7945      7945      7946      7945      7947
      7945      7948      7948      7949      7948      7950      7948      7951
      7951      7952      7951      7953      7951      7954      7954      7955
      7954      7956      7954      7957      7905      7906      7906      7908
      7906      7907      7908      7909      7908      7910      7908      7958
      7958      7959      7958      7960      7958      7961      7961      7962
      7961      7963      7961      7964      7964      7965      7964      7966
      7964      7967      7967      7968      7967      7969      7967      7970
      7970      7971      7970      7972      7970      7973      7973      7974
      7973      7975      7973      7976      7976      7977      7976      7978
      7978      7979      7978      7980      7980      7981      7980      7982
      7980      7983      7983      7984      7983      7985      7983      7986
      7986      7987      7986      7988      7986      7989      7989      7990
      7989      7991      7989      7992      7992      7993      7992      7994
      7992      7995      7995      7996      7995      7997      7995      7998
      7998      7999      7998      8000      7998      8001      8001      8002
      8001      8003      8001      8004      8005      8009      8005      8013
      8005      8017      8009      8010      8009      8011      8009      8012
      8013      8014      8013      8015      8013      8016      8017      8018
      8017      8019      8017      8020      8005      8006      8006      8007
      8006      8008      8006      8021      8021      8022      8021      8023
      8021      8027      8028      8029      8027      8024      8024      8028
      8024      8025      8024      8026      8029      8030      8029      8031
      8029      8032      8032      8033      8032      8040      8032      8034
      8040      8041      8040      8042      8040      8043      8034      8035
      8035      8037      8035      8036      8037      8038      8037      8039
      8037      8049      8049      8050      8049      8051      8049      8052
      8052      8053      8052      8054      8052      8055      8055      8056
      8055      8057      8055      8058      8058      8059      8058      8060
      8058      8061      8061      8062      8061      8063      8061      8064
      8064      8065      8064      8066      8064      8067      8067      8068
      8067      8069      8069      8070      8069      8071      8071      8072
      8071      8073      8071      8074      8074      8075      8074      8076
      8074      8077      8077      8078      8077      8079      8077      8080
      8080      8081      8080      8082      8080      8083      8083      8084
      8083      8085      8083      8086      8086      8087      8086      8088
      8086      8089      8089      8090      8089      8091      8089      8092
      8092      8093      8092      8094      8092      8095      8043      8044
      8044      8046      8044      8045      8046      8047      8046      8048
      8046      8096      8096      8097      8096      8098      8096      8099
      8099      8100      8099      8101      8099      8102      8102      8103
      8102      8104      8102      8105      8105      8106      8105      8107
      8105      8108      8108      8109      8108      8110      8108      8111
      8111      8112      8111      8113      8111      8114      8114      8115
      8114      8116      8116      8117      8116      8118      8118      8119
      8118      8120      8118      8121      8121      8122      8121      8123
      8121      8124      8124      8125      8124      8126      8124      8127
      8127      8128      8127      8129      8127      8130      8130      8131
      8130      8132      8130      8133      8133      8134      8133      8135
      8133      8136      8136      8137      8136      8138      8136      8139
      8139      8140      8139      8141      8139      8142      8143      8147
      8143      8151      8143      8155      8147      8148      8147      8149
      8147      8150      8151      8152      8151      8153      8151      8154
      8155      8156      8155      8157      8155      8158      8143      8144
      8144      8145      8144      8146      8144      8159      8159      8160
      8159      8161      8159      8165      8166      8167      8165      8162
      8162      8166      8162      8163      8162      8164      8167      8168
      8167      8169      8167      8170      8170      8171      8170      8178
      8170      8172      8178      8179      8178      8180      8178      8181
      8172      8173      8173      8175      8173      8174      8175      8176
      8175      8177      8175      8187      8187      8188      8187      8189
      8187      8190      8190      8191      8190      8192      8190      8193
      8193      8194      8193      8195      8193      8196      8196      8197
      8196      8198      8196      8199      8199      8200      8199      8201
      8199      8202      8202      8203      8202      8204      8202      8205
      8205      8206      8205      8207      8207      8208      8207      8209
      8209      8210      8209      8211      8209      8212      8212      8213
      8212      8214      8212      8215      8215      8216      8215      8217
      8215      8218      8218      8219      8218      8220      8218      8221
      8221      8222      8221      8223      8221      8224      8224      8225
      8224      8226      8224      8227      8227      8228      8227      8229
      8227      8230      8230      8231      8230      8232      8230      8233
      8181      8182      8182      8184      8182      8183      8184      8185
      8184      8186      8184      8234      8234      8235      8234      8236
      8234      8237      8237      8238      8237      8239      8237      8240
      8240      8241      8240      8242      8240      8243      8243      8244
      8243      8245      8243      8246      8246      8247      8246      8248
      8246      8249      8249      8250      8249      8251      8249      8252
      8252      8253      8252      8254      8254      8255      8254      8256
      8256      8257      8256      8258      8256      8259      8259      8260
      8259      8261      8259      8262      8262      8263      8262      8264
      8262      8265      8265      8266      8265      8267      8265      8268
      8268      8269      8268      8270      8268      8271      8271      8272
      8271      8273      8271      8274      8274      8275      8274      8276
      8274      8277      8277      8278      8277      8279      8277      8280
      8281      8285      8281      8289      8281      8293      8285      8286
      8285      8287      8285      8288      8289      8290      8289      8291
      8289      8292      8293      8294      8293      8295      8293      8296
      8281      8282      8282      8283      8282      8284      8282      8297
      8297      8298      8297      8299      8297      8303      8304      8305
      8303      8300      8300      8304      8300      8301      8300      8302
      8305      8306      8305      8307      8305      8308      8308      8309
      8308      8316      8308      8310      8316      8317      8316      8318
      8316      8319      8310      8311      8311      8313      8311      8312
      8313      8314      8313      8315      8313      8325      8325      8326
      8325      8327      8325      8328      8328      8329      8328      8330
      8328      8331      8331      8332      8331      8333      8331      8334
      8334      8335      8334      8336      8334      8337      8337      8338
      8337      8339      8337      8340      8340      8341      8340      8342
      8340      8343      8343      8344      8343      8345      8345      8346
      8345      8347      8347      8348      8347      8349      8347      8350
      8350      8351      8350      8352      8350      8353      8353      8354
      8353      8355      8353      8356      8356      8357      8356      8358
      8356      8359      8359      8360      8359      8361      8359      8362
      8362      8363      8362      8364      8362      8365      8365      8366
      8365      8367      8365      8368      8368      8369      8368      8370
      8368      8371      8319      8320      8320      8322      8320      8321
      8322      8323      8322      8324      8322      8372      8372      8373
      8372      8374      8372      8375      8375      8376      8375      8377
      8375      8378      8378      8379      8378      8380      8378      8381
      8381      8382      8381      8383      8381      8384      8384      8385
      8384      8386      8384      8387      8387      8388      8387      8389
      8387      8390      8390      8391      8390      8392      8392      8393
      8392      8394      8394      8395      8394      8396      8394      8397
      8397      8398      8397      8399      8397      8400      8400      8401
      8400      8402      8400      8403      8403      8404      8403      8405
      8403      8406      8406      8407      8406      8408      8406      8409
      8409      8410      8409      8411      8409      8412      8412      8413
      8412      8414      8412      8415      8415      8416      8415      8417
      8415      8418      8419      8423      8419      8427      8419      8431
      8423      8424      8423      8425      8423      8426      8427      8428
      8427      8429      8427      8430      8431      8432      8431      8433
      8431      8434      8419      8420      8420      8421      8420      8422
      8420      8435      8435      8436      8435      8437      8435      8441
      8442      8443      8441      8438      8438      8442      8438      8439
      8438      8440      8443      8444      8443      8445      8443      8446
      8446      8447      8446      8454      8446      8448      8454      8455
      8454      8456      8454      8457      8448      8449      8449      8451
      8449      8450      8451      8452      8451      8453      8451      8463
      8463      8464      8463      8465      8463      8466      8466      8467
      8466      8468      8466      8469      8469      8470      8469      8471
      8469      8472      8472      8473      8472      8474      8472      8475
      8475      8476      8475      8477      8475      8478      8478      8479
      8478      8480      8478      8481      8481      8482      8481      8483
      8483      8484      8483      8485      8485      8486      8485      8487
      8485      8488      8488      8489      8488      8490      8488      8491
      8491      8492      8491      8493      8491      8494      8494      8495
      8494      8496      8494      8497      8497      8498      8497      8499
      8497      8500      8500      8501      8500      8502      8500      8503
      8503      8504      8503      8505      8503      8506      8506      8507
      8506      8508      8506      8509      8457      8458      8458      8460
      8458      8459      8460      8461      8460      8462      8460      8510
      8510      8511      8510      8512      8510      8513      8513      8514
      8513      8515      8513      8516      8516      8517      8516      8518
      8516      8519      8519      8520      8519      8521      8519      8522
      8522      8523      8522      8524      8522      8525      8525      8526
      8525      8527      8525      8528      8528      8529      8528      8530
      8530      8531      8530      8532      8532      8533      8532      8534
      8532      8535      8535      8536      8535      8537      8535      8538
      8538      8539      8538      8540      8538      8541      8541      8542
      8541      8543      8541      8544      8544      8545      8544      8546
      8544      8547      8547      8548      8547      8549      8547      8550
      8550      8551      8550      8552      8550      8553      8553      8554
      8553      8555      8553      8556      8557      8561      8557      8565
      8557      8569      8561      8562      8561      8563      8561      8564
      8565      8566      8565      8567      8565      8568      8569      8570
      8569      8571      8569      8572      8557      8558      8558      8559
      8558      8560      8558      8573      8573      8574      8573      8575
      8573      8579      8580      8581      8579      8576      8576      8580
      8576      8577      8576      8578      8581      8582      8581      8583
      8581      8584      8584      8585      8584      8592      8584      8586
      8592      8593      8592      8594      8592      8595      8586      8587
      8587      8589      8587      8588      8589      8590      8589      8591
      8589      8601      8601      8602      8601      8603      8601      8604
      8604      8605      8604      8606      8604      8607      8607      8608
      8607      8609      8607      8610      8610      8611      8610      8612
      8610      8613      8613      8614      8613      8615      8613      8616
      8616      8617      8616      8618      8616      8619      8619      8620
      8619      8621      8621      8622      8621      8623      8623      8624
      8623      8625      8623      8626      8626      8627      8626      8628
      8626      8629      8629      8630      8629      8631      8629      8632
      8632      8633      8632      8634      8632      8635      8635      8636
      8635      8637      8635      8638      8638      8639      8638      8640
      8638      8641      8641      8642      8641      8643      8641      8644
      8644      8645      8644      8646      8644      8647      8595      8596
      8596      8598      8596      8597      8598      8599      8598      8600
      8598      8648      8648      8649      8648      8650      8648      8651
      8651      8652      8651      8653      8651      8654      8654      8655
      8654      8656      8654      8657      8657      8658      8657      8659
      8657      8660      8660      8661      8660      8662      8660      8663
      8663      8664      8663      8665      8663      8666      8666      8667
      8666      8668      8668      8669      8668      8670      8670      8671
      8670      8672      8670      8673      8673      8674      8673      8675
      8673      8676      8676      8677      8676      8678      8676      8679
      8679      8680      8679      8681      8679      8682      8682      8683
      8682      8684      8682      8685      8685      8686      8685      8687
      8685      8688      8688      8689      8688      8690      8688      8691
      8691      8692      8691      8693      8691      8694      8695      8699
      8695      8703      8695      8707      8699      8700      8699      8701
      8699      8702      8703      8704      8703      8705      8703      8706
      8707      8708      8707      8709      8707      8710      8695      8696
      8696      8697      8696      8698      8696      8711      8711      8712
      8711      8713      8711      8717      8718      8719      8717      8714
      8714      8718      8714      8715      8714      8716      8719      8720
      8719      8721      8719      8722      8722      8723      8722      8730
      8722      8724      8730      8731      8730      8732      8730      8733
      8724      8725      8725      8727      8725      8726      8727      8728
      8727      8729      8727      8739      8739      8740      8739      8741
      8739      8742      8742      8743      8742      8744      8742      8745
      8745      8746      8745      8747      8745      8748      8748      8749
      8748      8750      8748      8751      8751      8752      8751      8753
      8751      8754      8754      8755      8754      8756      8754      8757
      8757      8758      8757      8759      8759      8760      8759      8761
      8761      8762      8761      8763      8761      8764      8764      8765
      8764      8766      8764      8767      8767      8768      8767      8769
      8767      8770      8770      8771      8770      8772      8770      8773
      8773      8774      8773      8775      8773      8776      8776      8777
      8776      8778      8776      8779      8779      8780      8779      8781
      8779      8782      8782      8783      8782      8784      8782      8785
      8733      8734      8734      8736      8734      8735      8736      8737
      8736      8738      8736      8786      8786      8787      8786      8788
      8786      8789      8789      8790      8789      8791      8789      8792
      8792      8793      8792      8794      8792      8795      8795      8796
      8795      8797      8795      8798      8798      8799      8798      8800
      8798      8801      8801      8802      8801      8803      8801      8804
      8804      8805      8804      8806      8806      8807      8806      8808
      8808      8809      8808      8810      8808      8811      8811      8812
      8811      8813      8811      8814      8814      8815      8814      8816
      8814      8817      8817      8818      8817      8819      8817      8820
      8820      8821      8820      8822      8820      8823      8823      8824
      8823      8825      8823      8826      8826      8827      8826      8828
      8826      8829      8829      8830      8829      8831      8829      8832
      8833      8837      8833      8841      8833      8845      8837      8838
      8837      8839      8837      8840      8841      8842      8841      8843
      8841      8844      8845      8846      8845      8847      8845      8848
      8833      8834      8834      8835      8834      8836      8834      8849
      8849      8850      8849      8851      8849      8855      8856      8857
      8855      8852      8852      8856      8852      8853      8852      8854
      8857      8858      8857      8859      8857      8860      8860      8861
      8860      8868      8860      8862      8868      8869      8868      8870
      8868      8871      8862      8863      8863      8865      8863      8864
      8865      8866      8865      8867      8865      8877      8877      8878
      8877      8879      8877      8880      8880      8881      8880      8882
      8880      8883      8883      8884      8883      8885      8883      8886
      8886      8887      8886      8888      8886      8889      8889      8890
      8889      8891      8889      8892      8892      8893      8892      8894
      8892      8895      8895      8896      8895      8897      8897      8898
      8897      8899      8899      8900      8899      8901      8899      8902
      8902      8903      8902      8904      8902      8905      8905      8906
      8905      8907      8905      8908      8908      8909      8908      8910
      8908      8911      8911      8912      8911      8913      8911      8914
      8914      8915      8914      8916      8914      8917      8917      8918
      8917      8919      8917      8920      8920      8921      8920      8922
      8920      8923      8871      8872      8872      8874      8872      8873
      8874      8875      8874      8876      8874      8924      8924      8925
      8924      8926      8924      8927      8927      8928      8927      8929
      8927      8930      8930      8931      8930      8932      8930      8933
      8933      8934      8933      8935      8933      8936      8936      8937
      8936      8938      8936      8939      8939      8940      8939      8941
      8939      8942      8942      8943      8942      8944      8944      8945
      8944      8946      8946      8947      8946      8948      8946      8949
      8949      8950      8949      8951      8949      8952      8952      8953
      8952      8954      8952      8955      8955      8956      8955      8957
      8955      8958      8958      8959      8958      8960      8958      8961
      8961      8962      8961      8963      8961      8964      8964      8965
      8964      8966      8964      8967      8967      8968      8967      8969
      8967      8970      8971      8975      8971      8979      8971      8983
      8975      8976      8975      8977      8975      8978      8979      8980
      8979      8981      8979      8982      8983      8984      8983      8985
      8983      8986      8971      8972      8972      8973      8972      8974
      8972      8987      8987      8988      8987      8989      8987      8993
      8994      8995      8993      8990      8990      8994      8990      8991
      8990      8992      8995      8996      8995      8997      8995      8998
      8998      8999      8998      9006      8998      9000      9006      9007
      9006      9008      9006      9009      9000      9001      9001      9003
      9001      9002      9003      9004      9003      9005      9003      9015
      9015      9016      9015      9017      9015      9018      9018      9019
      9018      9020      9018      9021      9021      9022      9021      9023
      9021      9024      9024      9025      9024      9026      9024      9027
      9027      9028      9027      9029      9027      9030      9030      9031
      9030      9032      9030      9033      9033      9034      9033      9035
      9035      9036      9035      9037      9037      9038      9037      9039
      9037      9040      9040      9041      9040      9042      9040      9043
      9043      9044      9043      9045      9043      9046      9046      9047
      9046      9048      9046      9049      9049      9050      9049      9051
      9049      9052      9052      9053      9052      9054      9052      9055
      9055      9056      9055      9057      9055      9058      9058      9059
      9058      9060      9058      9061      9009      9010      9010      9012
      9010      9011      9012      9013      9012      9014      9012      9062
      9062      9063      9062      9064      9062      9065      9065      9066
      9065      9067      9065      9068      9068      9069      9068      9070
      9068      9071      9071      9072      9071      9073      9071      9074
      9074      9075      9074      9076      9074      9077      9077      9078
      9077      9079      9077      9080      9080      9081      9080      9082
      9082      9083      9082      9084      9084      9085      9084      9086
      9084      9087      9087      9088      9087      9089      9087      9090
      9090      9091      9090      9092      9090      9093      9093      9094
      9093      9095      9093      9096      9096      9097      9096      9098
      9096      9099      9099      9100      9099      9101      9099      9102
      9102      9103      9102      9104      9102      9105      9105      9106
      9105      9107      9105      9108      9109      9113      9109      9117
      9109      9121      9113      9114      9113      9115      9113      9116
      9117      9118      9117      9119      9117      9120      9121      9122
      9121      9123      9121      9124      9109      9110      9110      9111
      9110      9112      9110      9125      9125      9126      9125      9127
      9125      9131      9132      9133      9131      9128      9128      9132
      9128      9129      9128      9130      9133      9134      9133      9135
      9133      9136      9136      9137      9136      9144      9136      9138
      9144      9145      9144      9146      9144      9147      9138      9139
      9139      9141      9139      9140      9141      9142      9141      9143
      9141      9153      9153      9154      9153      9155      9153      9156
      9156      9157      9156      9158      9156      9159      9159      9160
      9159      9161      9159      9162      9162      9163      9162      9164
      9162      9165      9165      9166      9165      9167      9165      9168
      9168      9169      9168      9170      9168      9171      9171      9172
      9171      9173      9173      9174      9173      9175      9175      9176
      9175      9177      9175      9178      9178      9179      9178      9180
      9178      9181      9181      9182      9181      9183      9181      9184
      9184      9185      9184      9186      9184      9187      9187      9188
      9187      9189      9187      9190      9190      9191      9190      9192
      9190      9193      9193      9194      9193      9195      9193      9196
      9196      9197      9196      9198      9196      9199      9147      9148
      9148      9150      9148      9149      9150      9151      9150      9152
      9150      9200      9200      9201      9200      9202      9200      9203
      9203      9204      9203      9205      9203      9206      9206      9207
      9206      9208      9206      9209      9209      9210      9209      9211
      9209      9212      9212      9213      9212      9214      9212      9215
      9215      9216      9215      9217      9215      9218      9218      9219
      9218      9220      9220      9221      9220      9222      9222      9223
      9222      9224      9222      9225      9225      9226      9225      9227
      9225      9228      9228      9229      9228      9230      9228      9231
      9231      9232      9231      9233      9231      9234      9234      9235
      9234      9236      9234      9237      9237      9238      9237      9239
      9237      9240      9240      9241      9240      9242      9240      9243
      9243      9244      9243      9245      9243      9246      9247      9251
      9247      9255      9247      9259      9251      9252      9251      9253
      9251      9254      9255      9256      9255      9257      9255      9258
      9259      9260      9259      9261      9259      9262      9247      9248
      9248      9249      9248      9250      9248      9263      9263      9264
      9263      9265      9263      9269      9270      9271      9269      9266
      9266      9270      9266      9267      9266      9268      9271      9272
      9271      9273      9271      9274      9274      9275      9274      9282
      9274      9276      9282      9283      9282      9284      9282      9285
      9276      9277      9277      9279      9277      9278      9279      9280
      9279      9281      9279      9291      9291      9292      9291      9293
      9291      9294      9294      9295      9294      9296      9294      9297
      9297      9298      9297      9299      9297      9300      9300      9301
      9300      9302      9300      9303      9303      9304      9303      9305
      9303      9306      9306      9307      9306      9308      9306      9309
      9309      9310      9309      9311      9311      9312      9311      9313
      9313      9314      9313      9315      9313      9316      9316      9317
      9316      9318      9316      9319      9319      9320      9319      9321
      9319      9322      9322      9323      9322      9324      9322      9325
      9325      9326      9325      9327      9325      9328      9328      9329
      9328      9330      9328      9331      9331      9332      9331      9333
      9331      9334      9334      9335      9334      9336      9334      9337
      9285      9286      9286      9288      9286      9287      9288      9289
      9288      9290      9288      9338      9338      9339      9338      9340
      9338      9341      9341      9342      9341      9343      9341      9344
      9344      9345      9344      9346      9344      9347      9347      9348
      9347      9349      9347      9350      9350      9351      9350      9352
      9350      9353      9353      9354      9353      9355      9353      9356
      9356      9357      9356      9358      9358      9359      9358      9360
      9360      9361      9360      9362      9360      9363      9363      9364
      9363      9365      9363      9366      9366      9367      9366      9368
      9366      9369      9369      9370      9369      9371      9369      9372
      9372      9373      9372      9374      9372      9375      9375      9376
      9375      9377      9375      9378      9378      9379      9378      9380
      9378      9381      9381      9382      9381      9383      9381      9384
      9385      9389      9385      9393      9385      9397      9389      9390
      9389      9391      9389      9392      9393      9394      9393      9395
      9393      9396      9397      9398      9397      9399      9397      9400
      9385      9386      9386      9387      9386      9388      9386      9401
      9401      9402      9401      9403      9401      9407      9408      9409
      9407      9404      9404      9408      9404      9405      9404      9406
      9409      9410      9409      9411      9409      9412      9412      9413
      9412      9420      9412      9414      9420      9421      9420      9422
      9420      9423      9414      9415      9415      9417      9415      9416
      9417      9418      9417      9419      9417      9429      9429      9430
      9429      9431      9429      9432      9432      9433      9432      9434
      9432      9435      9435      9436      9435      9437      9435      9438
      9438      9439      9438      9440      9438      9441      9441      9442
      9441      9443      9441      9444      9444      9445      9444      9446
      9444      9447      9447      9448      9447      9449      9449      9450
      9449      9451      9451      9452      9451      9453      9451      9454
      9454      9455      9454      9456      9454      9457      9457      9458
      9457      9459      9457      9460      9460      9461      9460      9462
      9460      9463      9463      9464      9463      9465      9463      9466
      9466      9467      9466      9468      9466      9469      9469      9470
      9469      9471      9469      9472      9472      9473      9472      9474
      9472      9475      9423      9424      9424      9426      9424      9425
      9426      9427      9426      9428      9426      9476      9476      9477
      9476      9478      9476      9479      9479      9480      9479      9481
      9479      9482      9482      9483      9482      9484      9482      9485
      9485      9486      9485      9487      9485      9488      9488      9489
      9488      9490      9488      9491      9491      9492      9491      9493
      9491      9494      9494      9495      9494      9496      9496      9497
      9496      9498      9498      9499      9498      9500      9498      9501
      9501      9502      9501      9503      9501      9504      9504      9505
      9504      9506      9504      9507      9507      9508      9507      9509
      9507      9510      9510      9511      9510      9512      9510      9513
      9513      9514      9513      9515      9513      9516      9516      9517
      9516      9518      9516      9519      9519      9520      9519      9521
      9519      9522      9523      9527      9523      9531      9523      9535
      9527      9528      9527      9529      9527      9530      9531      9532
      9531      9533      9531      9534      9535      9536      9535      9537
      9535      9538      9523      9524      9524      9525      9524      9526
      9524      9539      9539      9540      9539      9541      9539      9545
      9546      9547      9545      9542      9542      9546      9542      9543
      9542      9544      9547      9548      9547      9549      9547      9550
      9550      9551      9550      9558      9550      9552      9558      9559
      9558      9560      9558      9561      9552      9553      9553      9555
      9553      9554      9555      9556      9555      9557      9555      9567
      9567      9568      9567      9569      9567      9570      9570      9571
      9570      9572      9570      9573      9573      9574      9573      9575
      9573      9576      9576      9577      9576      9578      9576      9579
      9579      9580      9579      9581      9579      9582      9582      9583
      9582      9584      9582      9585      9585      9586      9585      9587
      9587      9588      9587      9589      9589      9590      9589      9591
      9589      9592      9592      9593      9592      9594      9592      9595
      9595      9596      9595      9597      9595      9598      9598      9599
      9598      9600      9598      9601      9601      9602      9601      9603
      9601      9604      9604      9605      9604      9606      9604      9607
      9607      9608      9607      9609      9607      9610      9610      9611
      9610      9612      9610      9613      9561      9562      9562      9564
      9562      9563      9564      9565      9564      9566      9564      9614
      9614      9615      9614      9616      9614      9617      9617      9618
      9617      9619      9617      9620      9620      9621      9620      9622
      9620      9623      9623      9624      9623      9625      9623      9626
      9626      9627      9626      9628      9626      9629      9629      9630
      9629      9631      9629      9632      9632      9633      9632      9634
      9634      9635      9634      9636      9636      9637      9636      9638
      9636      9639      9639      9640      9639      9641      9639      9642
      9642      9643      9642      9644      9642      9645      9645      9646
      9645      9647      9645      9648      9648      9649      9648      9650
      9648      9651      9651      9652      9651      9653      9651      9654
      9654      9655      9654      9656      9654      9657      9657      9658
      9657      9659      9657      9660      9661      9665      9661      9669
      9661      9673      9665      9666      9665      9667      9665      9668
      9669      9670      9669      9671      9669      9672      9673      9674
      9673      9675      9673      9676      9661      9662      9662      9663
      9662      9664      9662      9677      9677      9678      9677      9679
      9677      9683      9684      9685      9683      9680      9680      9684
      9680      9681      9680      9682      9685      9686      9685      9687
      9685      9688      9688      9689      9688      9696      9688      9690
      9696      9697      9696      9698      9696      9699      9690      9691
      9691      9693      9691      9692      9693      9694      9693      9695
      9693      9705      9705      9706      9705      9707      9705      9708
      9708      9709      9708      9710      9708      9711      9711      9712
      9711      9713      9711      9714      9714      9715      9714      9716
      9714      9717      9717      9718      9717      9719      9717      9720
      9720      9721      9720      9722      9720      9723      9723      9724
      9723      9725      9725      9726      9725      9727      9727      9728
      9727      9729      9727      9730      9730      9731      9730      9732
      9730      9733      9733      9734      9733      9735      9733      9736
      9736      9737      9736      9738      9736      9739      9739      9740
      9739      9741      9739      9742      9742      9743      9742      9744
      9742      9745      9745      9746      9745      9747      9745      9748
      9748      9749      9748      9750      9748      9751      9699      9700
      9700      9702      9700      9701      9702      9703      9702      9704
      9702      9752      9752      9753      9752      9754      9752      9755
      9755      9756      9755      9757      9755      9758      9758      9759
      9758      9760      9758      9761      9761      9762      9761      9763
      9761      9764      9764      9765      9764      9766      9764      9767
      9767      9768      9767      9769      9767      9770      9770      9771
      9770      9772      9772      9773      9772      9774      9774      9775
      9774      9776      9774      9777      9777      9778      9777      9779
      9777      9780      9780      9781      9780      9782      9780      9783
      9783      9784      9783      9785      9783      9786      9786      9787
      9786      9788      9786      9789      9789      9790      9789      9791
      9789      9792      9792      9793      9792      9794      9792      9795
      9795      9796      9795      9797      9795      9798      9799      9803
      9799      9807      9799      9811      9803      9804      9803      9805
      9803      9806      9807      9808      9807      9809      9807      9810
      9811      9812      9811      9813      9811      9814      9799      9800
      9800      9801      9800      9802      9800      9815      9815      9816
      9815      9817      9815      9821      9822      9823      9821      9818
      9818      9822      9818      9819      9818      9820      9823      9824
      9823      9825      9823      9826      9826      9827      9826      9834
      9826      9828      9834      9835      9834      9836      9834      9837
      9828      9829      9829      9831      9829      9830      9831      9832
      9831      9833      9831      9843      9843      9844      9843      9845
      9843      9846      9846      9847      9846      9848      9846      9849
      9849      9850      9849      9851      9849      9852      9852      9853
      9852      9854      9852      9855      9855      9856      9855      9857
      9855      9858      9858      9859      9858      9860      9858      9861
      9861      9862      9861      9863      9863      9864      9863      9865
      9865      9866      9865      9867      9865      9868      9868      9869
      9868      9870      9868      9871      9871      9872      9871      9873
      9871      9874      9874      9875      9874      9876      9874      9877
      9877      9878      9877      9879      9877      9880      9880      9881
      9880      9882      9880      9883      9883      9884      9883      9885
      9883      9886      9886      9887      9886      9888      9886      9889
      9837      9838      9838      9840      9838      9839      9840      9841
      9840      9842      9840      9890      9890      9891      9890      9892
      9890      9893      9893      9894      9893      9895      9893      9896
      9896      9897      9896      9898      9896      9899      9899      9900
      9899      9901      9899      9902      9902      9903      9902      9904
      9902      9905      9905      9906      9905      9907      9905      9908
      9908      9909      9908      9910      9910      9911      9910      9912
      9912      9913      9912      9914      9912      9915      9915      9916
      9915      9917      9915      9918      9918      9919      9918      9920
      9918      9921      9921      9922      9921      9923      9921      9924
      9924      9925      9924      9926      9924      9927      9927      9928
      9927      9929      9927      9930      9930      9931      9930      9932
      9930      9933      9933      9934      9933      9935      9933      9936
      9937      9941      9937      9945      9937      9949      9941      9942
      9941      9943      9941      9944      9945      9946      9945      9947
      9945      9948      9949      9950      9949      9951      9949      9952
      9937      9938      9938      9939      9938      9940      9938      9953
      9953      9954      9953      9955      9953      9959      9960      9961
      9959      9956      9956      9960      9956      9957      9956      9958
      9961      9962      9961      9963      9961      9964      9964      9965
      9964      9972      9964      9966      9972      9973      9972      9974
      9972      9975      9966      9967      9967      9969      9967      9968
      9969      9970      9969      9971      9969      9981      9981      9982
      9981      9983      9981      9984      9984      9985      9984      9986
      9984      9987      9987      9988      9987      9989      9987      9990
      9990      9991      9990      9992      9990      9993      9993      9994
      9993      9995      9993      9996      9996      9997      9996      9998
      9996      9999      9999     10000      9999     10001     10001     10002
     10001     10003     10003     10004     10003     10005     10003     10006
     10006     10007     10006     10008     10006     10009     10009     10010
     10009     10011     10009     10012     10012     10013     10012     10014
     10012     10015     10015     10016     10015     10017     10015     10018
     10018     10019     10018     10020     10018     10021     10021     10022
     10021     10023     10021     10024     10024     10025     10024     10026
     10024     10027      9975      9976      9976      9978      9976      9977
      9978      9979      9978      9980      9978     10028     10028     10029
     10028     10030     10028     10031     10031     10032     10031     10033
     10031     10034     10034     10035     10034     10036     10034     10037
     10037     10038     10037     10039     10037     10040     10040     10041
     10040     10042     10040     10043     10043     10044     10043     10045
     10043     10046     10046     10047     10046     10048     10048     10049
     10048     10050     10050     10051     10050     10052     10050     10053
     10053     10054     10053     10055     10053     10056     10056     10057
     10056     10058     10056     10059     10059     10060     10059     10061
     10059     10062     10062     10063     10062     10064     10062     10065
     10065     10066     10065     10067     10065     10068     10068     10069
     10068     10070     10068     10071     10071     10072     10071     10073
     10071     10074     10075     10079     10075     10083     10075     10087
     10079     10080     10079     10081     10079     10082     10083     10084
     10083     10085     10083     10086     10087     10088     10087     10089
     10087     10090     10075     10076     10076     10077     10076     10078
     10076     10091     10091     10092     10091     10093     10091     10097
     10098     10099     10097     10094     10094     10098     10094     10095
     10094     10096     10099     10100     10099     10101     10099     10102
     10102     10103     10102     10110     10102     10104     10110     10111
     10110     10112     10110     10113     10104     10105     10105     10107
     10105     10106     10107     10108     10107     10109     10107     10119
     10119     10120     10119     10121     10119     10122     10122     10123
     10122     10124     10122     10125     10125     10126     10125     10127
     10125     10128     10128     10129     10128     10130     10128     10131
     10131     10132     10131     10133     10131     10134     10134     10135
     10134     10136     10134     10137     10137     10138     10137     10139
     10139     10140     10139     10141     10141     10142     10141     10143
     10141     10144     10144     10145     10144     10146     10144     10147
     10147     10148     10147     10149     10147     10150     10150     10151
     10150     10152     10150     10153     10153     10154     10153     10155
     10153     10156     10156     10157     10156     10158     10156     10159
     10159     10160     10159     10161     10159     10162     10162     10163
     10162     10164     10162     10165     10113     10114     10114     10116
     10114     10115     10116     10117     10116     10118     10116     10166
     10166     10167     10166     10168     10166     10169     10169     10170
     10169     10171     10169     10172     10172     10173     10172     10174
     10172     10175     10175     10176     10175     10177     10175     10178
     10178     10179     10178     10180     10178     10181     10181     10182
     10181     10183     10181     10184     10184     10185     10184     10186
     10186     10187     10186     10188     10188     10189     10188     10190
     10188     10191     10191     10192     10191     10193     10191     10194
     10194     10195     10194     10196     10194     10197     10197     10198
     10197     10199     10197     10200     10200     10201     10200     10202
     10200     10203     10203     10204     10203     10205     10203     10206
     10206     10207     10206     10208     10206     10209     10209     10210
     10209     10211     10209     10212     10213     10217     10213     10221
     10213     10225     10217     10218     10217     10219     10217     10220
     10221     10222     10221     10223     10221     10224     10225     10226
     10225     10227     10225     10228     10213     10214     10214     10215
     10214     10216     10214     10229     10229     10230     10229     10231
     10229     10235     10236     10237     10235     10232     10232     10236
     10232     10233     10232     10234     10237     10238     10237     10239
     10237     10240     10240     10241     10240     10248     10240     10242
     10248     10249     10248     10250     10248     10251     10242     10243
     10243     10245     10243     10244     10245     10246     10245     10247
     10245     10257     10257     10258     10257     10259     10257     10260
     10260     10261     10260     10262     10260     10263     10263     10264
     10263     10265     10263     10266     10266     10267     10266     10268
     10266     10269     10269     10270     10269     10271     10269     10272
     10272     10273     10272     10274     10272     10275     10275     10276
     10275     10277     10277     10278     10277     10279     10279     10280
     10279     10281     10279     10282     10282     10283     10282     10284
     10282     10285     10285     10286     10285     10287     10285     10288
     10288     10289     10288     10290     10288     10291     10291     10292
     10291     10293     10291     10294     10294     10295     10294     10296
     10294     10297     10297     10298     10297     10299     10297     10300
     10300     10301     10300     10302     10300     10303     10251     10252
     10252     10254     10252     10253     10254     10255     10254     10256
     10254     10304     10304     10305     10304     10306     10304     10307
     10307     10308     10307     10309     10307     10310     10310     10311
     10310     10312     10310     10313     10313     10314     10313     10315
     10313     10316     10316     10317     10316     10318     10316     10319
     10319     10320     10319     10321     10319     10322     10322     10323
     10322     10324     10324     10325     10324     10326     10326     10327
     10326     10328     10326     10329     10329     10330     10329     10331
     10329     10332     10332     10333     10332     10334     10332     10335
     10335     10336     10335     10337     10335     10338     10338     10339
     10338     10340     10338     10341     10341     10342     10341     10343
     10341     10344     10344     10345     10344     10346     10344     10347
     10347     10348     10347     10349     10347     10350     10351     10355
     10351     10359     10351     10363     10355     10356     10355     10357
     10355     10358     10359     10360     10359     10361     10359     10362
     10363     10364     10363     10365     10363     10366     10351     10352
     10352     10353     10352     10354     10352     10367     10367     10368
     10367     10369     10367     10373     10374     10375     10373     10370
     10370     10374     10370     10371     10370     10372     10375     10376
     10375     10377     10375     10378     10378     10379     10378     10386
     10378     10380     10386     10387     10386     10388     10386     10389
     10380     10381     10381     10383     10381     10382     10383     10384
     10383     10385     10383     10395     10395     10396     10395     10397
     10395     10398     10398     10399     10398     10400     10398     10401
     10401     10402     10401     10403     10401     10404     10404     10405
     10404     10406     10404     10407     10407     10408     10407     10409
     10407     10410     10410     10411     10410     10412     10410     10413
     10413     10414     10413     10415     10415     10416     10415     10417
     10417     10418     10417     10419     10417     10420     10420     10421
     10420     10422     10420     10423     10423     10424     10423     10425
     10423     10426     10426     10427     10426     10428     10426     10429
     10429     10430     10429     10431     10429     10432     10432     10433
     10432     10434     10432     10435     10435     10436     10435     10437
     10435     10438     10438     10439     10438     10440     10438     10441
     10389     10390     10390     10392     10390     10391     10392     10393
     10392     10394     10392     10442     10442     10443     10442     10444
     10442     10445     10445     10446     10445     10447     10445     10448
     10448     10449     10448     10450     10448     10451     10451     10452
     10451     10453     10451     10454     10454     10455     10454     10456
     10454     10457     10457     10458     10457     10459     10457     10460
     10460     10461     10460     10462     10462     10463     10462     10464
     10464     10465     10464     10466     10464     10467     10467     10468
     10467     10469     10467     10470     10470     10471     10470     10472
     10470     10473     10473     10474     10473     10475     10473     10476
     10476     10477     10476     10478     10476     10479     10479     10480
     10479     10481     10479     10482     10482     10483     10482     10484
     10482     10485     10485     10486     10485     10487     10485     10488
     10489     10493     10489     10497     10489     10501     10493     10494
     10493     10495     10493     10496     10497     10498     10497     10499
     10497     10500     10501     10502     10501     10503     10501     10504
     10489     10490     10490     10491     10490     10492     10490     10505
     10505     10506     10505     10507     10505     10511     10512     10513
     10511     10508     10508     10512     10508     10509     10508     10510
     10513     10514     10513     10515     10513     10516     10516     10517
     10516     10524     10516     10518     10524     10525     10524     10526
     10524     10527     10518     10519     10519     10521     10519     10520
     10521     10522     10521     10523     10521     10533     10533     10534
     10533     10535     10533     10536     10536     10537     10536     10538
     10536     10539     10539     10540     10539     10541     10539     10542
     10542     10543     10542     10544     10542     10545     10545     10546
     10545     10547     10545     10548     10548     10549     10548     10550
     10548     10551     10551     10552     10551     10553     10553     10554
     10553     10555     10555     10556     10555     10557     10555     10558
     10558     10559     10558     10560     10558     10561     10561     10562
     10561     10563     10561     10564     10564     10565     10564     10566
     10564     10567     10567     10568     10567     10569     10567     10570
     10570     10571     10570     10572     10570     10573     10573     10574
     10573     10575     10573     10576     10576     10577     10576     10578
     10576     10579     10527     10528     10528     10530     10528     10529
     10530     10531     10530     10532     10530     10580     10580     10581
     10580     10582     10580     10583     10583     10584     10583     10585
     10583     10586     10586     10587     10586     10588     10586     10589
     10589     10590     10589     10591     10589     10592     10592     10593
     10592     10594     10592     10595     10595     10596     10595     10597
     10595     10598     10598     10599     10598     10600     10600     10601
     10600     10602     10602     10603     10602     10604     10602     10605
     10605     10606     10605     10607     10605     10608     10608     10609
     10608     10610     10608     10611     10611     10612     10611     10613
     10611     10614     10614     10615     10614     10616     10614     10617
     10617     10618     10617     10619     10617     10620     10620     10621
     10620     10622     10620     10623     10623     10624     10623     10625
     10623     10626     10627     10631     10627     10635     10627     10639
     10631     10632     10631     10633     10631     10634     10635     10636
     10635     10637     10635     10638     10639     10640     10639     10641
     10639     10642     10627     10628     10628     10629     10628     10630
     10628     10643     10643     10644     10643     10645     10643     10649
     10650     10651     10649     10646     10646     10650     10646     10647
     10646     10648     10651     10652     10651     10653     10651     10654
     10654     10655     10654     10662     10654     10656     10662     10663
     10662     10664     10662     10665     10656     10657     10657     10659
     10657     10658     10659     10660     10659     10661     10659     10671
     10671     10672     10671     10673     10671     10674     10674     10675
     10674     10676     10674     10677     10677     10678     10677     10679
     10677     10680     10680     10681     10680     10682     10680     10683
     10683     10684     10683     10685     10683     10686     10686     10687
     10686     10688     10686     10689     10689     10690     10689     10691
     10691     10692     10691     10693     10693     10694     10693     10695
     10693     10696     10696     10697     10696     10698     10696     10699
     10699     10700     10699     10701     10699     10702     10702     10703
     10702     10704     10702     10705     10705     10706     10705     10707
     10705     10708     10708     10709     10708     10710     10708     10711
     10711     10712     10711     10713     10711     10714     10714     10715
     10714     10716     10714     10717     10665     10666     10666     10668
     10666     10667     10668     10669     10668     10670     10668     10718
     10718     10719     10718     10720     10718     10721     10721     10722
     10721     10723     10721     10724     10724     10725     10724     10726
     10724     10727     10727     10728     10727     10729     10727     10730
     10730     10731     10730     10732     10730     10733     10733     10734
     10733     10735     10733     10736     10736     10737     10736     10738
     10738     10739     10738     10740     10740     10741     10740     10742
     10740     10743     10743     10744     10743     10745     10743     10746
     10746     10747     10746     10748     10746     10749     10749     10750
     10749     10751     10749     10752     10752     10753     10752     10754
     10752     10755     10755     10756     10755     10757     10755     10758
     10758     10759     10758     10760     10758     10761     10761     10762
     10761     10763     10761     10764     10765     10769     10765     10773
     10765     10777     10769     10770     10769     10771     10769     10772
     10773     10774     10773     10775     10773     10776     10777     10778
     10777     10779     10777     10780     10765     10766     10766     10767
     10766     10768     10766     10781     10781     10782     10781     10783
     10781     10787     10788     10789     10787     10784     10784     10788
     10784     10785     10784     10786     10789     10790     10789     10791
     10789     10792     10792     10793     10792     10800     10792     10794
     10800     10801     10800     10802     10800     10803     10794     10795
     10795     10797     10795     10796     10797     10798     10797     10799
     10797     10809     10809     10810     10809     10811     10809     10812
     10812     10813     10812     10814     10812     10815     10815     10816
     10815     10817     10815     10818     10818     10819     10818     10820
     10818     10821     10821     10822     10821     10823     10821     10824
     10824     10825     10824     10826     10824     10827     10827     10828
     10827     10829     10829     10830     10829     10831     10831     10832
     10831     10833     10831     10834     10834     10835     10834     10836
     10834     10837     10837     10838     10837     10839     10837     10840
     10840     10841     10840     10842     10840     10843     10843     10844
     10843     10845     10843     10846     10846     10847     10846     10848
     10846     10849     10849     10850     10849     10851     10849     10852
     10852     10853     10852     10854     10852     10855     10803     10804
     10804     10806     10804     10805     10806     10807     10806     10808
     10806     10856     10856     10857     10856     10858     10856     10859
     10859     10860     10859     10861     10859     10862     10862     10863
     10862     10864     10862     10865     10865     10866     10865     10867
     10865     10868     10868     10869     10868     10870     10868     10871
     10871     10872     10871     10873     10871     10874     10874     10875
     10874     10876     10876     10877     10876     10878     10878     10879
     10878     10880     10878     10881     10881     10882     10881     10883
     10881     10884     10884     10885     10884     10886     10884     10887
     10887     10888     10887     10889     10887     10890     10890     10891
     10890     10892     10890     10893     10893     10894     10893     10895
     10893     10896     10896     10897     10896     10898     10896     10899
     10899     10900     10899     10901     10899     10902     10903     10907
     10903     10911     10903     10915     10907     10908     10907     10909
     10907     10910     10911     10912     10911     10913     10911     10914
     10915     10916     10915     10917     10915     10918     10903     10904
     10904     10905     10904     10906     10904     10919     10919     10920
     10919     10921     10919     10925     10926     10927     10925     10922
     10922     10926     10922     10923     10922     10924     10927     10928
     10927     10929     10927     10930     10930     10931     10930     10938
     10930     10932     10938     10939     10938     10940     10938     10941
     10932     10933     10933     10935     10933     10934     10935     10936
     10935     10937     10935     10947     10947     10948     10947     10949
     10947     10950     10950     10951     10950     10952     10950     10953
     10953     10954     10953     10955     10953     10956     10956     10957
     10956     10958     10956     10959     10959     10960     10959     10961
     10959     10962     10962     10963     10962     10964     10962     10965
     10965     10966     10965     10967     10967     10968     10967     10969
     10969     10970     10969     10971     10969     10972     10972     10973
     10972     10974     10972     10975     10975     10976     10975     10977
     10975     10978     10978     10979     10978     10980     10978     10981
     10981     10982     10981     10983     10981     10984     10984     10985
     10984     10986     10984     10987     10987     10988     10987     10989
     10987     10990     10990     10991     10990     10992     10990     10993
     10941     10942     10942     10944     10942     10943     10944     10945
     10944     10946     10944     10994     10994     10995     10994     10996
     10994     10997     10997     10998     10997     10999     10997     11000
     11000     11001     11000     11002     11000     11003     11003     11004
     11003     11005     11003     11006     11006     11007     11006     11008
     11006     11009     11009     11010     11009     11011     11009     11012
     11012     11013     11012     11014     11014     11015     11014     11016
     11016     11017     11016     11018     11016     11019     11019     11020
     11019     11021     11019     11022     11022     11023     11022     11024
     11022     11025     11025     11026     11025     11027     11025     11028
     11028     11029     11028     11030     11028     11031     11031     11032
     11031     11033     11031     11034     11034     11035     11034     11036
     11034     11037     11037     11038     11037     11039     11037     11040
     11041     11045     11041     11049     11041     11053     11045     11046
     11045     11047     11045     11048     11049     11050     11049     11051
     11049     11052     11053     11054     11053     11055     11053     11056
     11041     11042     11042     11043     11042     11044     11042     11057
     11057     11058     11057     11059     11057     11063     11064     11065
     11063     11060     11060     11064     11060     11061     11060     11062
     11065     11066     11065     11067     11065     11068     11068     11069
     11068     11076     11068     11070     11076     11077     11076     11078
     11076     11079     11070     11071     11071     11073     11071     11072
     11073     11074     11073     11075     11073     11085     11085     11086
     11085     11087     11085     11088     11088     11089     11088     11090
     11088     11091     11091     11092     11091     11093     11091     11094
     11094     11095     11094     11096     11094     11097     11097     11098
     11097     11099     11097     11100     11100     11101     11100     11102
     11100     11103     11103     11104     11103     11105     11105     11106
     11105     11107     11107     11108     11107     11109     11107     11110
     11110     11111     11110     11112     11110     11113     11113     11114
     11113     11115     11113     11116     11116     11117     11116     11118
     11116     11119     11119     11120     11119     11121     11119     11122
     11122     11123     11122     11124     11122     11125     11125     11126
     11125     11127     11125     11128     11128     11129     11128     11130
     11128     11131     11079     11080     11080     11082     11080     11081
     11082     11083     11082     11084     11082     11132     11132     11133
     11132     11134     11132     11135     11135     11136     11135     11137
     11135     11138     11138     11139     11138     11140     11138     11141
     11141     11142     11141     11143     11141     11144     11144     11145
     11144     11146     11144     11147     11147     11148     11147     11149
     11147     11150     11150     11151     11150     11152     11152     11153
     11152     11154     11154     11155     11154     11156     11154     11157
     11157     11158     11157     11159     11157     11160     11160     11161
     11160     11162     11160     11163     11163     11164     11163     11165
     11163     11166     11166     11167     11166     11168     11166     11169
     11169     11170     11169     11171     11169     11172     11172     11173
     11172     11174     11172     11175     11175     11176     11175     11177
     11175     11178     11179     11183     11179     11187     11179     11191
     11183     11184     11183     11185     11183     11186     11187     11188
     11187     11189     11187     11190     11191     11192     11191     11193
     11191     11194     11179     11180     11180     11181     11180     11182
     11180     11195     11195     11196     11195     11197     11195     11201
     11202     11203     11201     11198     11198     11202     11198     11199
     11198     11200     11203     11204     11203     11205     11203     11206
     11206     11207     11206     11214     11206     11208     11214     11215
     11214     11216     11214     11217     11208     11209     11209     11211
     11209     11210     11211     11212     11211     11213     11211     11223
     11223     11224     11223     11225     11223     11226     11226     11227
     11226     11228     11226     11229     11229     11230     11229     11231
     11229     11232     11232     11233     11232     11234     11232     11235
     11235     11236     11235     11237     11235     11238     11238     11239
     11238     11240     11238     11241     11241     11242     11241     11243
     11243     11244     11243     11245     11245     11246     11245     11247
     11245     11248     11248     11249     11248     11250     11248     11251
     11251     11252     11251     11253     11251     11254     11254     11255
     11254     11256     11254     11257     11257     11258     11257     11259
     11257     11260     11260     11261     11260     11262     11260     11263
     11263     11264     11263     11265     11263     11266     11266     11267
     11266     11268     11266     11269     11217     11218     11218     11220
     11218     11219     11220     11221     11220     11222     11220     11270
     11270     11271     11270     11272     11270     11273     11273     11274
     11273     11275     11273     11276     11276     11277     11276     11278
     11276     11279     11279     11280     11279     11281     11279     11282
     11282     11283     11282     11284     11282     11285     11285     11286
     11285     11287     11285     11288     11288     11289     11288     11290
     11290     11291     11290     11292     11292     11293     11292     11294
     11292     11295     11295     11296     11295     11297     11295     11298
     11298     11299     11298     11300     11298     11301     11301     11302
     11301     11303     11301     11304     11304     11305     11304     11306
     11304     11307     11307     11308     11307     11309     11307     11310
     11310     11311     11310     11312     11310     11313     11313     11314
     11313     11315     11313     11316     11317     11321     11317     11325
     11317     11329     11321     11322     11321     11323     11321     11324
     11325     11326     11325     11327     11325     11328     11329     11330
     11329     11331     11329     11332     11317     11318     11318     11319
     11318     11320     11318     11333     11333     11334     11333     11335
     11333     11339     11340     11341     11339     11336     11336     11340
     11336     11337     11336     11338     11341     11342     11341     11343
     11341     11344     11344     11345     11344     11352     11344     11346
     11352     11353     11352     11354     11352     11355     11346     11347
     11347     11349     11347     11348     11349     11350     11349     11351
     11349     11361     11361     11362     11361     11363     11361     11364
     11364     11365     11364     11366     11364     11367     11367     11368
     11367     11369     11367     11370     11370     11371     11370     11372
     11370     11373     11373     11374     11373     11375     11373     11376
     11376     11377     11376     11378     11376     11379     11379     11380
     11379     11381     11381     11382     11381     11383     11383     11384
     11383     11385     11383     11386     11386     11387     11386     11388
     11386     11389     11389     11390     11389     11391     11389     11392
     11392     11393     11392     11394     11392     11395     11395     11396
     11395     11397     11395     11398     11398     11399     11398     11400
     11398     11401     11401     11402     11401     11403     11401     11404
     11404     11405     11404     11406     11404     11407     11355     11356
     11356     11358     11356     11357     11358     11359     11358     11360
     11358     11408     11408     11409     11408     11410     11408     11411
     11411     11412     11411     11413     11411     11414     11414     11415
     11414     11416     11414     11417     11417     11418     11417     11419
     11417     11420     11420     11421     11420     11422     11420     11423
     11423     11424     11423     11425     11423     11426     11426     11427
     11426     11428     11428     11429     11428     11430     11430     11431
     11430     11432     11430     11433     11433     11434     11433     11435
     11433     11436     11436     11437     11436     11438     11436     11439
     11439     11440     11439     11441     11439     11442     11442     11443
     11442     11444     11442     11445     11445     11446     11445     11447
     11445     11448     11448     11449     11448     11450     11448     11451
     11451     11452     11451     11453     11451     11454     11455     11459
     11455     11463     11455     11467     11459     11460     11459     11461
     11459     11462     11463     11464     11463     11465     11463     11466
     11467     11468     11467     11469     11467     11470     11455     11456
     11456     11457     11456     11458     11456     11471     11471     11472
     11471     11473     11471     11477     11478     11479     11477     11474
     11474     11478     11474     11475     11474     11476     11479     11480
     11479     11481     11479     11482     11482     11483     11482     11490
     11482     11484     11490     11491     11490     11492     11490     11493
     11484     11485     11485     11487     11485     11486     11487     11488
     11487     11489     11487     11499     11499     11500     11499     11501
     11499     11502     11502     11503     11502     11504     11502     11505
     11505     11506     11505     11507     11505     11508     11508     11509
     11508     11510     11508     11511     11511     11512     11511     11513
     11511     11514     11514     11515     11514     11516     11514     11517
     11517     11518     11517     11519     11519     11520     11519     11521
     11521     11522     11521     11523     11521     11524     11524     11525
     11524     11526     11524     11527     11527     11528     11527     11529
     11527     11530     11530     11531     11530     11532     11530     11533
     11533     11534     11533     11535     11533     11536     11536     11537
     11536     11538     11536     11539     11539     11540     11539     11541
     11539     11542     11542     11543     11542     11544     11542     11545
     11493     11494     11494     11496     11494     11495     11496     11497
     11496     11498     11496     11546     11546     11547     11546     11548
     11546     11549     11549     11550     11549     11551     11549     11552
     11552     11553     11552     11554     11552     11555     11555     11556
     11555     11557     11555     11558     11558     11559     11558     11560
     11558     11561     11561     11562     11561     11563     11561     11564
     11564     11565     11564     11566     11566     11567     11566     11568
     11568     11569     11568     11570     11568     11571     11571     11572
     11571     11573     11571     11574     11574     11575     11574     11576
     11574     11577     11577     11578     11577     11579     11577     11580
     11580     11581     11580     11582     11580     11583     11583     11584
     11583     11585     11583     11586     11586     11587     11586     11588
     11586     11589     11589     11590     11589     11591     11589     11592
     11593     11597     11593     11601     11593     11605     11597     11598
     11597     11599     11597     11600     11601     11602     11601     11603
     11601     11604     11605     11606     11605     11607     11605     11608
     11593     11594     11594     11595     11594     11596     11594     11609
     11609     11610     11609     11611     11609     11615     11616     11617
     11615     11612     11612     11616     11612     11613     11612     11614
     11617     11618     11617     11619     11617     11620     11620     11621
     11620     11628     11620     11622     11628     11629     11628     11630
     11628     11631     11622     11623     11623     11625     11623     11624
     11625     11626     11625     11627     11625     11637     11637     11638
     11637     11639     11637     11640     11640     11641     11640     11642
     11640     11643     11643     11644     11643     11645     11643     11646
     11646     11647     11646     11648     11646     11649     11649     11650
     11649     11651     11649     11652     11652     11653     11652     11654
     11652     11655     11655     11656     11655     11657     11657     11658
     11657     11659     11659     11660     11659     11661     11659     11662
     11662     11663     11662     11664     11662     11665     11665     11666
     11665     11667     11665     11668     11668     11669     11668     11670
     11668     11671     11671     11672     11671     11673     11671     11674
     11674     11675     11674     11676     11674     11677     11677     11678
     11677     11679     11677     11680     11680     11681     11680     11682
     11680     11683     11631     11632     11632     11634     11632     11633
     11634     11635     11634     11636     11634     11684     11684     11685
     11684     11686     11684     11687     11687     11688     11687     11689
     11687     11690     11690     11691     11690     11692     11690     11693
     11693     11694     11693     11695     11693     11696     11696     11697
     11696     11698     11696     11699     11699     11700     11699     11701
     11699     11702     11702     11703     11702     11704     11704     11705
     11704     11706     11706     11707     11706     11708     11706     11709
     11709     11710     11709     11711     11709     11712     11712     11713
     11712     11714     11712     11715     11715     11716     11715     11717
     11715     11718     11718     11719     11718     11720     11718     11721
     11721     11722     11721     11723     11721     11724     11724     11725
     11724     11726     11724     11727     11727     11728     11727     11729
     11727     11730     11731     11735     11731     11739     11731     11743
     11735     11736     11735     11737     11735     11738     11739     11740
     11739     11741     11739     11742     11743     11744     11743     11745
     11743     11746     11731     11732     11732     11733     11732     11734
     11732     11747     11747     11748     11747     11749     11747     11753
     11754     11755     11753     11750     11750     11754     11750     11751
     11750     11752     11755     11756     11755     11757     11755     11758
     11758     11759     11758     11766     11758     11760     11766     11767
     11766     11768     11766     11769     11760     11761     11761     11763
     11761     11762     11763     11764     11763     11765     11763     11775
     11775     11776     11775     11777     11775     11778     11778     11779
     11778     11780     11778     11781     11781     11782     11781     11783
     11781     11784     11784     11785     11784     11786     11784     11787
     11787     11788     11787     11789     11787     11790     11790     11791
     11790     11792     11790     11793     11793     11794     11793     11795
     11795     11796     11795     11797     11797     11798     11797     11799
     11797     11800     11800     11801     11800     11802     11800     11803
     11803     11804     11803     11805     11803     11806     11806     11807
     11806     11808     11806     11809     11809     11810     11809     11811
     11809     11812     11812     11813     11812     11814     11812     11815
     11815     11816     11815     11817     11815     11818     11818     11819
     11818     11820     11818     11821     11769     11770     11770     11772
     11770     11771     11772     11773     11772     11774     11772     11822
     11822     11823     11822     11824     11822     11825     11825     11826
     11825     11827     11825     11828     11828     11829     11828     11830
     11828     11831     11831     11832     11831     11833     11831     11834
     11834     11835     11834     11836     11834     11837     11837     11838
     11837     11839     11837     11840     11840     11841     11840     11842
     11842     11843     11842     11844     11844     11845     11844     11846
     11844     11847     11847     11848     11847     11849     11847     11850
     11850     11851     11850     11852     11850     11853     11853     11854
     11853     11855     11853     11856     11856     11857     11856     11858
     11856     11859     11859     11860     11859     11861     11859     11862
     11862     11863     11862     11864     11862     11865     11865     11866
     11865     11867     11865     11868     11869     11873     11869     11877
     11869     11881     11873     11874     11873     11875     11873     11876
     11877     11878     11877     11879     11877     11880     11881     11882
     11881     11883     11881     11884     11869     11870     11870     11871
     11870     11872     11870     11885     11885     11886     11885     11887
     11885     11891     11892     11893     11891     11888     11888     11892
     11888     11889     11888     11890     11893     11894     11893     11895
     11893     11896     11896     11897     11896     11904     11896     11898
     11904     11905     11904     11906     11904     11907     11898     11899
     11899     11901     11899     11900     11901     11902     11901     11903
     11901     11913     11913     11914     11913     11915     11913     11916
     11916     11917     11916     11918     11916     11919     11919     11920
     11919     11921     11919     11922     11922     11923     11922     11924
     11922     11925     11925     11926     11925     11927     11925     11928
     11928     11929     11928     11930     11928     11931     11931     11932
     11931     11933     11933     11934     11933     11935     11935     11936
     11935     11937     11935     11938     11938     11939     11938     11940
     11938     11941     11941     11942     11941     11943     11941     11944
     11944     11945     11944     11946     11944     11947     11947     11948
     11947     11949     11947     11950     11950     11951     11950     11952
     11950     11953     11953     11954     11953     11955     11953     11956
     11956     11957     11956     11958     11956     11959     11907     11908
     11908     11910     11908     11909     11910     11911     11910     11912
     11910     11960     11960     11961     11960     11962     11960     11963
     11963     11964     11963     11965     11963     11966     11966     11967
     11966     11968     11966     11969     11969     11970     11969     11971
     11969     11972     11972     11973     11972     11974     11972     11975
     11975     11976     11975     11977     11975     11978     11978     11979
     11978     11980     11980     11981     11980     11982     11982     11983
     11982     11984     11982     11985     11985     11986     11985     11987
     11985     11988     11988     11989     11988     11990     11988     11991
     11991     11992     11991     11993     11991     11994     11994     11995
     11994     11996     11994     11997     11997     11998     11997     11999
     11997     12000     12000     12001     12000     12002     12000     12003
     12003     12004     12003     12005     12003     12006     12007     12011
     12007     12015     12007     12019     12011     12012     12011     12013
     12011     12014     12015     12016     12015     12017     12015     12018
     12019     12020     12019     12021     12019     12022     12007     12008
     12008     12009     12008     12010     12008     12023     12023     12024
     12023     12025     12023     12029     12030     12031     12029     12026
     12026     12030     12026     12027     12026     12028     12031     12032
     12031     12033     12031     12034     12034     12035     12034     12042
     12034     12036     12042     12043     12042     12044     12042     12045
     12036     12037     12037     12039     12037     12038     12039     12040
     12039     12041     12039     12051     12051     12052     12051     12053
     12051     12054     12054     12055     12054     12056     12054     12057
     12057     12058     12057     12059     12057     12060     12060     12061
     12060     12062     12060     12063     12063     12064     12063     12065
     12063     12066     12066     12067     12066     12068     12066     12069
     12069     12070     12069     12071     12071     12072     12071     12073
     12073     12074     12073     12075     12073     12076     12076     12077
     12076     12078     12076     12079     12079     12080     12079     12081
     12079     12082     12082     12083     12082     12084     12082     12085
     12085     12086     12085     12087     12085     12088     12088     12089
     12088     12090     12088     12091     12091     12092     12091     12093
     12091     12094     12094     12095     12094     12096     12094     12097
     12045     12046     12046     12048     12046     12047     12048     12049
     12048     12050     12048     12098     12098     12099     12098     12100
     12098     12101     12101     12102     12101     12103     12101     12104
     12104     12105     12104     12106     12104     12107     12107     12108
     12107     12109     12107     12110     12110     12111     12110     12112
     12110     12113     12113     12114     12113     12115     12113     12116
     12116     12117     12116     12118     12118     12119     12118     12120
     12120     12121     12120     12122     12120     12123     12123     12124
     12123     12125     12123     12126     12126     12127     12126     12128
     12126     12129     12129     12130     12129     12131     12129     12132
     12132     12133     12132     12134     12132     12135     12135     12136
     12135     12137     12135     12138     12138     12139     12138     12140
     12138     12141     12141     12142     12141     12143     12141     12144
     12145     12149     12145     12153     12145     12157     12149     12150
     12149     12151     12149     12152     12153     12154     12153     12155
     12153     12156     12157     12158     12157     12159     12157     12160
     12145     12146     12146     12147     12146     12148     12146     12161
     12161     12162     12161     12163     12161     12167     12168     12169
     12167     12164     12164     12168     12164     12165     12164     12166
     12169     12170     12169     12171     12169     12172     12172     12173
     12172     12180     12172     12174     12180     12181     12180     12182
     12180     12183     12174     12175     12175     12177     12175     12176
     12177     12178     12177     12179     12177     12189     12189     12190
     12189     12191     12189     12192     12192     12193     12192     12194
     12192     12195     12195     12196     12195     12197     12195     12198
     12198     12199     12198     12200     12198     12201     12201     12202
     12201     12203     12201     12204     12204     12205     12204     12206
     12204     12207     12207     12208     12207     12209     12209     12210
     12209     12211     12211     12212     12211     12213     12211     12214
     12214     12215     12214     12216     12214     12217     12217     12218
     12217     12219     12217     12220     12220     12221     12220     12222
     12220     12223     12223     12224     12223     12225     12223     12226
     12226     12227     12226     12228     12226     12229     12229     12230
     12229     12231     12229     12232     12232     12233     12232     12234
     12232     12235     12183     12184     12184     12186     12184     12185
     12186     12187     12186     12188     12186     12236     12236     12237
     12236     12238     12236     12239     12239     12240     12239     12241
     12239     12242     12242     12243     12242     12244     12242     12245
     12245     12246     12245     12247     12245     12248     12248     12249
     12248     12250     12248     12251     12251     12252     12251     12253
     12251     12254     12254     12255     12254     12256     12256     12257
     12256     12258     12258     12259     12258     12260     12258     12261
     12261     12262     12261     12263     12261     12264     12264     12265
     12264     12266     12264     12267     12267     12268     12267     12269
     12267     12270     12270     12271     12270     12272     12270     12273
     12273     12274     12273     12275     12273     12276     12276     12277
     12276     12278     12276     12279     12279     12280     12279     12281
     12279     12282     12283     12287     12283     12291     12283     12295
     12287     12288     12287     12289     12287     12290     12291     12292
     12291     12293     12291     12294     12295     12296     12295     12297
     12295     12298     12283     12284     12284     12285     12284     12286
     12284     12299     12299     12300     12299     12301     12299     12305
     12306     12307     12305     12302     12302     12306     12302     12303
     12302     12304     12307     12308     12307     12309     12307     12310
     12310     12311     12310     12318     12310     12312     12318     12319
     12318     12320     12318     12321     12312     12313     12313     12315
     12313     12314     12315     12316     12315     12317     12315     12327
     12327     12328     12327     12329     12327     12330     12330     12331
     12330     12332     12330     12333     12333     12334     12333     12335
     12333     12336     12336     12337     12336     12338     12336     12339
     12339     12340     12339     12341     12339     12342     12342     12343
     12342     12344     12342     12345     12345     12346     12345     12347
     12347     12348     12347     12349     12349     12350     12349     12351
     12349     12352     12352     12353     12352     12354     12352     12355
     12355     12356     12355     12357     12355     12358     12358     12359
     12358     12360     12358     12361     12361     12362     12361     12363
     12361     12364     12364     12365     12364     12366     12364     12367
     12367     12368     12367     12369     12367     12370     12370     12371
     12370     12372     12370     12373     12321     12322     12322     12324
     12322     12323     12324     12325     12324     12326     12324     12374
     12374     12375     12374     12376     12374     12377     12377     12378
     12377     12379     12377     12380     12380     12381     12380     12382
     12380     12383     12383     12384     12383     12385     12383     12386
     12386     12387     12386     12388     12386     12389     12389     12390
     12389     12391     12389     12392     12392     12393     12392     12394
     12394     12395     12394     12396     12396     12397     12396     12398
     12396     12399     12399     12400     12399     12401     12399     12402
     12402     12403     12402     12404     12402     12405     12405     12406
     12405     12407     12405     12408     12408     12409     12408     12410
     12408     12411     12411     12412     12411     12413     12411     12414
     12414     12415     12414     12416     12414     12417     12417     12418
     12417     12419     12417     12420     12421     12425     12421     12429
     12421     12433     12425     12426     12425     12427     12425     12428
     12429     12430     12429     12431     12429     12432     12433     12434
     12433     12435     12433     12436     12421     12422     12422     12423
     12422     12424     12422     12437     12437     12438     12437     12439
     12437     12443     12444     12445     12443     12440     12440     12444
     12440     12441     12440     12442     12445     12446     12445     12447
     12445     12448     12448     12449     12448     12456     12448     12450
     12456     12457     12456     12458     12456     12459     12450     12451
     12451     12453     12451     12452     12453     12454     12453     12455
     12453     12465     12465     12466     12465     12467     12465     12468
     12468     12469     12468     12470     12468     12471     12471     12472
     12471     12473     12471     12474     12474     12475     12474     12476
     12474     12477     12477     12478     12477     12479     12477     12480
     12480     12481     12480     12482     12480     12483     12483     12484
     12483     12485     12485     12486     12485     12487     12487     12488
     12487     12489     12487     12490     12490     12491     12490     12492
     12490     12493     12493     12494     12493     12495     12493     12496
     12496     12497     12496     12498     12496     12499     12499     12500
     12499     12501     12499     12502     12502     12503     12502     12504
     12502     12505     12505     12506     12505     12507     12505     12508
     12508     12509     12508     12510     12508     12511     12459     12460
     12460     12462     12460     12461     12462     12463     12462     12464
     12462     12512     12512     12513     12512     12514     12512     12515
     12515     12516     12515     12517     12515     12518     12518     12519
     12518     12520     12518     12521     12521     12522     12521     12523
     12521     12524     12524     12525     12524     12526     12524     12527
     12527     12528     12527     12529     12527     12530     12530     12531
     12530     12532     12532     12533     12532     12534     12534     12535
     12534     12536     12534     12537     12537     12538     12537     12539
     12537     12540     12540     12541     12540     12542     12540     12543
     12543     12544     12543     12545     12543     12546     12546     12547
     12546     12548     12546     12549     12549     12550     12549     12551
     12549     12552     12552     12553     12552     12554     12552     12555
     12555     12556     12555     12557     12555     12558     12559     12563
     12559     12567     12559     12571     12563     12564     12563     12565
     12563     12566     12567     12568     12567     12569     12567     12570
     12571     12572     12571     12573     12571     12574     12559     12560
     12560     12561     12560     12562     12560     12575     12575     12576
     12575     12577     12575     12581     12582     12583     12581     12578
     12578     12582     12578     12579     12578     12580     12583     12584
     12583     12585     12583     12586     12586     12587     12586     12594
     12586     12588     12594     12595     12594     12596     12594     12597
     12588     12589     12589     12591     12589     12590     12591     12592
     12591     12593     12591     12603     12603     12604     12603     12605
     12603     12606     12606     12607     12606     12608     12606     12609
     12609     12610     12609     12611     12609     12612     12612     12613
     12612     12614     12612     12615     12615     12616     12615     12617
     12615     12618     12618     12619     12618     12620     12618     12621
     12621     12622     12621     12623     12623     12624     12623     12625
     12625     12626     12625     12627     12625     12628     12628     12629
     12628     12630     12628     12631     12631     12632     12631     12633
     12631     12634     12634     12635     12634     12636     12634     12637
     12637     12638     12637     12639     12637     12640     12640     12641
     12640     12642     12640     12643     12643     12644     12643     12645
     12643     12646     12646     12647     12646     12648     12646     12649
     12597     12598     12598     12600     12598     12599     12600     12601
     12600     12602     12600     12650     12650     12651     12650     12652
     12650     12653     12653     12654     12653     12655     12653     12656
     12656     12657     12656     12658     12656     12659     12659     12660
     12659     12661     12659     12662     12662     12663     12662     12664
     12662     12665     12665     12666     12665     12667     12665     12668
     12668     12669     12668     12670     12670     12671     12670     12672
     12672     12673     12672     12674     12672     12675     12675     12676
     12675     12677     12675     12678     12678     12679     12678     12680
     12678     12681     12681     12682     12681     12683     12681     12684
     12684     12685     12684     12686     12684     12687     12687     12688
     12687     12689     12687     12690     12690     12691     12690     12692
     12690     12693     12693     12694     12693     12695     12693     12696
     12697     12701     12697     12705     12697     12709     12701     12702
     12701     12703     12701     12704     12705     12706     12705     12707
     12705     12708     12709     12710     12709     12711     12709     12712
     12697     12698     12698     12699     12698     12700     12698     12713
     12713     12714     12713     12715     12713     12719     12720     12721
     12719     12716     12716     12720     12716     12717     12716     12718
     12721     12722     12721     12723     12721     12724     12724     12725
     12724     12732     12724     12726     12732     12733     12732     12734
     12732     12735     12726     12727     12727     12729     12727     12728
     12729     12730     12729     12731     12729     12741     12741     12742
     12741     12743     12741     12744     12744     12745     12744     12746
     12744     12747     12747     12748     12747     12749     12747     12750
     12750     12751     12750     12752     12750     12753     12753     12754
     12753     12755     12753     12756     12756     12757     12756     12758
     12756     12759     12759     12760     12759     12761     12761     12762
     12761     12763     12763     12764     12763     12765     12763     12766
     12766     12767     12766     12768     12766     12769     12769     12770
     12769     12771     12769     12772     12772     12773     12772     12774
     12772     12775     12775     12776     12775     12777     12775     12778
     12778     12779     12778     12780     12778     12781     12781     12782
     12781     12783     12781     12784     12784     12785     12784     12786
     12784     12787     12735     12736     12736     12738     12736     12737
     12738     12739     12738     12740     12738     12788     12788     12789
     12788     12790     12788     12791     12791     12792     12791     12793
     12791     12794     12794     12795     12794     12796     12794     12797
     12797     12798     12797     12799     12797     12800     12800     12801
     12800     12802     12800     12803     12803     12804     12803     12805
     12803     12806     12806     12807     12806     12808     12808     12809
     12808     12810     12810     12811     12810     12812     12810     12813
     12813     12814     12813     12815     12813     12816     12816     12817
     12816     12818     12816     12819     12819     12820     12819     12821
     12819     12822     12822     12823     12822     12824     12822     12825
     12825     12826     12825     12827     12825     12828     12828     12829
     12828     12830     12828     12831     12831     12832     12831     12833
     12831     12834     12835     12839     12835     12843     12835     12847
     12839     12840     12839     12841     12839     12842     12843     12844
     12843     12845     12843     12846     12847     12848     12847     12849
     12847     12850     12835     12836     12836     12837     12836     12838
     12836     12851     12851     12852     12851     12853     12851     12857
     12858     12859     12857     12854     12854     12858     12854     12855
     12854     12856     12859     12860     12859     12861     12859     12862
     12862     12863     12862     12870     12862     12864     12870     12871
     12870     12872     12870     12873     12864     12865     12865     12867
     12865     12866     12867     12868     12867     12869     12867     12879
     12879     12880     12879     12881     12879     12882     12882     12883
     12882     12884     12882     12885     12885     12886     12885     12887
     12885     12888     12888     12889     12888     12890     12888     12891
     12891     12892     12891     12893     12891     12894     12894     12895
     12894     12896     12894     12897     12897     12898     12897     12899
     12899     12900     12899     12901     12901     12902     12901     12903
     12901     12904     12904     12905     12904     12906     12904     12907
     12907     12908     12907     12909     12907     12910     12910     12911
     12910     12912     12910     12913     12913     12914     12913     12915
     12913     12916     12916     12917     12916     12918     12916     12919
     12919     12920     12919     12921     12919     12922     12922     12923
     12922     12924     12922     12925     12873     12874     12874     12876
     12874     12875     12876     12877     12876     12878     12876     12926
     12926     12927     12926     12928     12926     12929     12929     12930
     12929     12931     12929     12932     12932     12933     12932     12934
     12932     12935     12935     12936     12935     12937     12935     12938
     12938     12939     12938     12940     12938     12941     12941     12942
     12941     12943     12941     12944     12944     12945     12944     12946
     12946     12947     12946     12948     12948     12949     12948     12950
     12948     12951     12951     12952     12951     12953     12951     12954
     12954     12955     12954     12956     12954     12957     12957     12958
     12957     12959     12957     12960     12960     12961     12960     12962
     12960     12963     12963     12964     12963     12965     12963     12966
     12966     12967     12966     12968     12966     12969     12969     12970
     12969     12971     12969     12972     12973     12977     12973     12981
     12973     12985     12977     12978     12977     12979     12977     12980
     12981     12982     12981     12983     12981     12984     12985     12986
     12985     12987     12985     12988     12973     12974     12974     12975
     12974     12976     12974     12989     12989     12990     12989     12991
     12989     12995     12996     12997     12995     12992     12992     12996
     12992     12993     12992     12994     12997     12998     12997     12999
     12997     13000     13000     13001     13000     13008     13000     13002
     13008     13009     13008     13010     13008     13011     13002     13003
     13003     13005     13003     13004     13005     13006     13005     13007
     13005     13017     13017     13018     13017     13019     13017     13020
     13020     13021     13020     13022     13020     13023     13023     13024
     13023     13025     13023     13026     13026     13027     13026     13028
     13026     13029     13029     13030     13029     13031     13029     13032
     13032     13033     13032     13034     13032     13035     13035     13036
     13035     13037     13037     13038     13037     13039     13039     13040
     13039     13041     13039     13042     13042     13043     13042     13044
     13042     13045     13045     13046     13045     13047     13045     13048
     13048     13049     13048     13050     13048     13051     13051     13052
     13051     13053     13051     13054     13054     13055     13054     13056
     13054     13057     13057     13058     13057     13059     13057     13060
     13060     13061     13060     13062     13060     13063     13011     13012
     13012     13014     13012     13013     13014     13015     13014     13016
     13014     13064     13064     13065     13064     13066     13064     13067
     13067     13068     13067     13069     13067     13070     13070     13071
     13070     13072     13070     13073     13073     13074     13073     13075
     13073     13076     13076     13077     13076     13078     13076     13079
     13079     13080     13079     13081     13079     13082     13082     13083
     13082     13084     13084     13085     13084     13086     13086     13087
     13086     13088     13086     13089     13089     13090     13089     13091
     13089     13092     13092     13093     13092     13094     13092     13095
     13095     13096     13095     13097     13095     13098     13098     13099
     13098     13100     13098     13101     13101     13102     13101     13103
     13101     13104     13104     13105     13104     13106     13104     13107
     13107     13108     13107     13109     13107     13110     13111     13115
     13111     13119     13111     13123     13115     13116     13115     13117
     13115     13118     13119     13120     13119     13121     13119     13122
     13123     13124     13123     13125     13123     13126     13111     13112
     13112     13113     13112     13114     13112     13127     13127     13128
     13127     13129     13127     13133     13134     13135     13133     13130
     13130     13134     13130     13131     13130     13132     13135     13136
     13135     13137     13135     13138     13138     13139     13138     13146
     13138     13140     13146     13147     13146     13148     13146     13149
     13140     13141     13141     13143     13141     13142     13143     13144
     13143     13145     13143     13155     13155     13156     13155     13157
     13155     13158     13158     13159     13158     13160     13158     13161
     13161     13162     13161     13163     13161     13164     13164     13165
     13164     13166     13164     13167     13167     13168     13167     13169
     13167     13170     13170     13171     13170     13172     13170     13173
     13173     13174     13173     13175     13175     13176     13175     13177
     13177     13178     13177     13179     13177     13180     13180     13181
     13180     13182     13180     13183     13183     13184     13183     13185
     13183     13186     13186     13187     13186     13188     13186     13189
     13189     13190     13189     13191     13189     13192     13192     13193
     13192     13194     13192     13195     13195     13196     13195     13197
     13195     13198     13198     13199     13198     13200     13198     13201
     13149     13150     13150     13152     13150     13151     13152     13153
     13152     13154     13152     13202     13202     13203     13202     13204
     13202     13205     13205     13206     13205     13207     13205     13208
     13208     13209     13208     13210     13208     13211     13211     13212
     13211     13213     13211     13214     13214     13215     13214     13216
     13214     13217     13217     13218     13217     13219     13217     13220
     13220     13221     13220     13222     13222     13223     13222     13224
     13224     13225     13224     13226     13224     13227     13227     13228
     13227     13229     13227     13230     13230     13231     13230     13232
     13230     13233     13233     13234     13233     13235     13233     13236
     13236     13237     13236     13238     13236     13239     13239     13240
     13239     13241     13239     13242     13242     13243     13242     13244
     13242     13245     13245     13246     13245     13247     13245     13248
     13249     13253     13249     13257     13249     13261     13253     13254
     13253     13255     13253     13256     13257     13258     13257     13259
     13257     13260     13261     13262     13261     13263     13261     13264
     13249     13250     13250     13251     13250     13252     13250     13265
     13265     13266     13265     13267     13265     13271     13272     13273
     13271     13268     13268     13272     13268     13269     13268     13270
     13273     13274     13273     13275     13273     13276     13276     13277
     13276     13284     13276     13278     13284     13285     13284     13286
     13284     13287     13278     13279     13279     13281     13279     13280
     13281     13282     13281     13283     13281     13293     13293     13294
     13293     13295     13293     13296     13296     13297     13296     13298
     13296     13299     13299     13300     13299     13301     13299     13302
     13302     13303     13302     13304     13302     13305     13305     13306
     13305     13307     13305     13308     13308     13309     13308     13310
     13308     13311     13311     13312     13311     13313     13313     13314
     13313     13315     13315     13316     13315     13317     13315     13318
     13318     13319     13318     13320     13318     13321     13321     13322
     13321     13323     13321     13324     13324     13325     13324     13326
     13324     13327     13327     13328     13327     13329     13327     13330
     13330     13331     13330     13332     13330     13333     13333     13334
     13333     13335     13333     13336     13336     13337     13336     13338
     13336     13339     13287     13288     13288     13290     13288     13289
     13290     13291     13290     13292     13290     13340     13340     13341
     13340     13342     13340     13343     13343     13344     13343     13345
     13343     13346     13346     13347     13346     13348     13346     13349
     13349     13350     13349     13351     13349     13352     13352     13353
     13352     13354     13352     13355     13355     13356     13355     13357
     13355     13358     13358     13359     13358     13360     13360     13361
     13360     13362     13362     13363     13362     13364     13362     13365
     13365     13366     13365     13367     13365     13368     13368     13369
     13368     13370     13368     13371     13371     13372     13371     13373
     13371     13374     13374     13375     13374     13376     13374     13377
     13377     13378     13377     13379     13377     13380     13380     13381
     13380     13382     13380     13383     13383     13384     13383     13385
     13383     13386     13387     13391     13387     13395     13387     13399
     13391     13392     13391     13393     13391     13394     13395     13396
     13395     13397     13395     13398     13399     13400     13399     13401
     13399     13402     13387     13388     13388     13389     13388     13390
     13388     13403     13403     13404     13403     13405     13403     13409
     13410     13411     13409     13406     13406     13410     13406     13407
     13406     13408     13411     13412     13411     13413     13411     13414
     13414     13415     13414     13422     13414     13416     13422     13423
     13422     13424     13422     13425     13416     13417     13417     13419
     13417     13418     13419     13420     13419     13421     13419     13431
     13431     13432     13431     13433     13431     13434     13434     13435
     13434     13436     13434     13437     13437     13438     13437     13439
     13437     13440     13440     13441     13440     13442     13440     13443
     13443     13444     13443     13445     13443     13446     13446     13447
     13446     13448     13446     13449     13449     13450     13449     13451
     13451     13452     13451     13453     13453     13454     13453     13455
     13453     13456     13456     13457     13456     13458     13456     13459
     13459     13460     13459     13461     13459     13462     13462     13463
     13462     13464     13462     13465     13465     13466     13465     13467
     13465     13468     13468     13469     13468     13470     13468     13471
     13471     13472     13471     13473     13471     13474     13474     13475
     13474     13476     13474     13477     13425     13426     13426     13428
     13426     13427     13428     13429     13428     13430     13428     13478
     13478     13479     13478     13480     13478     13481     13481     13482
     13481     13483     13481     13484     13484     13485     13484     13486
     13484     13487     13487     13488     13487     13489     13487     13490
     13490     13491     13490     13492     13490     13493     13493     13494
     13493     13495     13493     13496     13496     13497     13496     13498
     13498     13499     13498     13500     13500     13501     13500     13502
     13500     13503     13503     13504     13503     13505     13503     13506
     13506     13507     13506     13508     13506     13509     13509     13510
     13509     13511     13509     13512     13512     13513     13512     13514
     13512     13515     13515     13516     13515     13517     13515     13518
     13518     13519     13518     13520     13518     13521     13521     13522
     13521     13523     13521     13524     13525     13529     13525     13533
     13525     13537     13529     13530     13529     13531     13529     13532
     13533     13534     13533     13535     13533     13536     13537     13538
     13537     13539     13537     13540     13525     13526     13526     13527
     13526     13528     13526     13541     13541     13542     13541     13543
     13541     13547     13548     13549     13547     13544     13544     13548
     13544     13545     13544     13546     13549     13550     13549     13551
     13549     13552     13552     13553     13552     13560     13552     13554
     13560     13561     13560     13562     13560     13563     13554     13555
     13555     13557     13555     13556     13557     13558     13557     13559
     13557     13569     13569     13570     13569     13571     13569     13572
     13572     13573     13572     13574     13572     13575     13575     13576
     13575     13577     13575     13578     13578     13579     13578     13580
     13578     13581     13581     13582     13581     13583     13581     13584
     13584     13585     13584     13586     13584     13587     13587     13588
     13587     13589     13589     13590     13589     13591     13591     13592
     13591     13593     13591     13594     13594     13595     13594     13596
     13594     13597     13597     13598     13597     13599     13597     13600
     13600     13601     13600     13602     13600     13603     13603     13604
     13603     13605     13603     13606     13606     13607     13606     13608
     13606     13609     13609     13610     13609     13611     13609     13612
     13612     13613     13612     13614     13612     13615     13563     13564
     13564     13566     13564     13565     13566     13567     13566     13568
     13566     13616     13616     13617     13616     13618     13616     13619
     13619     13620     13619     13621     13619     13622     13622     13623
     13622     13624     13622     13625     13625     13626     13625     13627
     13625     13628     13628     13629     13628     13630     13628     13631
     13631     13632     13631     13633     13631     13634     13634     13635
     13634     13636     13636     13637     13636     13638     13638     13639
     13638     13640     13638     13641     13641     13642     13641     13643
     13641     13644     13644     13645     13644     13646     13644     13647
     13647     13648     13647     13649     13647     13650     13650     13651
     13650     13652     13650     13653     13653     13654     13653     13655
     13653     13656     13656     13657     13656     13658     13656     13659
     13659     13660     13659     13661     13659     13662     13663     13667
     13663     13671     13663     13675     13667     13668     13667     13669
     13667     13670     13671     13672     13671     13673     13671     13674
     13675     13676     13675     13677     13675     13678     13663     13664
     13664     13665     13664     13666     13664     13679     13679     13680
     13679     13681     13679     13685     13686     13687     13685     13682
     13682     13686     13682     13683     13682     13684     13687     13688
     13687     13689     13687     13690     13690     13691     13690     13698
     13690     13692     13698     13699     13698     13700     13698     13701
     13692     13693     13693     13695     13693     13694     13695     13696
     13695     13697     13695     13707     13707     13708     13707     13709
     13707     13710     13710     13711     13710     13712     13710     13713
     13713     13714     13713     13715     13713     13716     13716     13717
     13716     13718     13716     13719     13719     13720     13719     13721
     13719     13722     13722     13723     13722     13724     13722     13725
     13725     13726     13725     13727     13727     13728     13727     13729
     13729     13730     13729     13731     13729     13732     13732     13733
     13732     13734     13732     13735     13735     13736     13735     13737
     13735     13738     13738     13739     13738     13740     13738     13741
     13741     13742     13741     13743     13741     13744     13744     13745
     13744     13746     13744     13747     13747     13748     13747     13749
     13747     13750     13750     13751     13750     13752     13750     13753
     13701     13702     13702     13704     13702     13703     13704     13705
     13704     13706     13704     13754     13754     13755     13754     13756
     13754     13757     13757     13758     13757     13759     13757     13760
     13760     13761     13760     13762     13760     13763     13763     13764
     13763     13765     13763     13766     13766     13767     13766     13768
     13766     13769     13769     13770     13769     13771     13769     13772
     13772     13773     13772     13774     13774     13775     13774     13776
     13776     13777     13776     13778     13776     13779     13779     13780
     13779     13781     13779     13782     13782     13783     13782     13784
     13782     13785     13785     13786     13785     13787     13785     13788
     13788     13789     13788     13790     13788     13791     13791     13792
     13791     13793     13791     13794     13794     13795     13794     13796
     13794     13797     13797     13798     13797     13799     13797     13800
     13801     13802     13801     13803     13802     13803     13804     13805
     13804     13806     13805     13806     13807     13808     13807     13809
     13808     13809     13810     13811     13810     13812     13811     13812
     13813     13814     13813     13815     13814     13815     13816     13817
     13816     13818     13817     13818     13819     13820     13819     13821
     13820     13821     13822     13823     13822     13824     13823     13824
     13825     13826     13825     13827     13826     13827     13828     13829
     13828     13830     13829     13830     13831     13832     13831     13833
     13832     13833     13834     13835     13834     13836     13835     13836
     13837     13838     13837     13839     13838     13839     13840     13841
     13840     13842     13841     13842     13843     13844     13843     13845
     13844     13845     13846     13847     13846     13848     13847     13848
     13849     13850     13849     13851     13850     13851     13852     13853
     13852     13854     13853     13854     13855     13856     13855     13857
     13856     13857     13858     13859     13858     13860     13859     13860
     13861     13862     13861     13863     13862     13863     13864     13865
     13864     13866     13865     13866     13867     13868     13867     13869
     13868     13869     13870     13871     13870     13872     13871     13872
     13873     13874     13873     13875     13874     13875     13876     13877
     13876     13878     13877     13878     13879     13880     13879     13881
     13880     13881     13882     13883     13882     13884     13883     13884
     13885     13886     13885     13887     13886     13887     13888     13889
     13888     13890     13889     13890     13891     13892     13891     13893
     13892     13893     13894     13895     13894     13896     13895     13896
     13897     13898     13897     13899     13898     13899     13900     13901
     13900     13902     13901     13902     13903     13904     13903     13905
     13904     13905     13906     13907     13906     13908     13907     13908
     13909     13910     13909     13911     13910     13911     13912     13913
     13912     13914     13913     13914     13915     13916     13915     13917
     13916     13917     13918     13919     13918     13920     13919     13920
     13921     13922     13921     13923     13922     13923     13924     13925
     13924     13926     13925     13926     13927     13928     13927     13929
     13928     13929     13930     13931     13930     13932     13931     13932
     13933     13934     13933     13935     13934     13935     13936     13937
     13936     13938     13937     13938     13939     13940     13939     13941
     13940     13941     13942     13943     13942     13944     13943     13944
     13945     13946     13945     13947     13946     13947     13948     13949
     13948     13950     13949     13950     13951     13952     13951     13953
     13952     13953     13954     13955     13954     13956     13955     13956
     13957     13958     13957     13959     13958     13959     13960     13961
     13960     13962     13961     13962     13963     13964     13963     13965
     13964     13965     13966     13967     13966     13968     13967     13968
     13969     13970     13969     13971     13970     13971     13972     13973
     13972     13974     13973     13974     13975     13976     13975     13977
     13976     13977     13978     13979     13978     13980     13979     13980
     13981     13982     13981     13983     13982     13983     13984     13985
     13984     13986     13985     13986     13987     13988     13987     13989
     13988     13989     13990     13991     13990     13992     13991     13992
     13993     13994     13993     13995     13994     13995     13996     13997
     13996     13998     13997     13998     13999     14000     13999     14001
     14000     14001     14002     14003     14002     14004     14003     14004
     14005     14006     14005     14007     14006     14007     14008     14009
     14008     14010     14009     14010     14011     14012     14011     14013
     14012     14013     14014     14015     14014     14016     14015     14016
     14017     14018     14017     14019     14018     14019     14020     14021
     14020     14022     14021     14022     14023     14024     14023     14025
     14024     14025     14026     14027     14026     14028     14027     14028
     14029     14030     14029     14031     14030     14031     14032     14033
     14032     14034     14033     14034     14035     14036     14035     14037
     14036     14037     14038     14039     14038     14040     14039     14040
     14041     14042     14041     14043     14042     14043     14044     14045
     14044     14046     14045     14046     14047     14048     14047     14049
     14048     14049     14050     14051     14050     14052     14051     14052
     14053     14054     14053     14055     14054     14055     14056     14057
     14056     14058     14057     14058     14059     14060     14059     14061
     14060     14061     14062     14063     14062     14064     14063     14064
     14065     14066     14065     14067     14066     14067     14068     14069
     14068     14070     14069     14070     14071     14072     14071     14073
     14072     14073     14074     14075     14074     14076     14075     14076
     14077     14078     14077     14079     14078     14079     14080     14081
     14080     14082     14081     14082     14083     14084     14083     14085
     14084     14085     14086     14087     14086     14088     14087     14088
     14089     14090     14089     14091     14090     14091     14092     14093
     14092     14094     14093     14094     14095     14096     14095     14097
     14096     14097     14098     14099     14098     14100     14099     14100
     14101     14102     14101     14103     14102     14103     14104     14105
     14104     14106     14105     14106     14107     14108     14107     14109
     14108     14109     14110     14111     14110     14112     14111     14112
     14113     14114     14113     14115     14114     14115     14116     14117
     14116     14118     14117     14118     14119     14120     14119     14121
     14120     14121     14122     14123     14122     14124     14123     14124
     14125     14126     14125     14127     14126     14127     14128     14129
     14128     14130     14129     14130     14131     14132     14131     14133
     14132     14133     14134     14135     14134     14136     14135     14136
     14137     14138     14137     14139     14138     14139     14140     14141
     14140     14142     14141     14142     14143     14144     14143     14145
     14144     14145     14146     14147     14146     14148     14147     14148
     14149     14150     14149     14151     14150     14151     14152     14153
     14152     14154     14153     14154     14155     14156     14155     14157
     14156     14157     14158     14159     14158     14160     14159     14160
     14161     14162     14161     14163     14162     14163     14164     14165
     14164     14166     14165     14166     14167     14168     14167     14169
     14168     14169     14170     14171     14170     14172     14171     14172
     14173     14174     14173     14175     14174     14175     14176     14177
     14176     14178     14177     14178     14179     14180     14179     14181
     14180     14181     14182     14183     14182     14184     14183     14184
     14185     14186     14185     14187     14186     14187     14188     14189
     14188     14190     14189     14190     14191     14192     14191     14193
     14192     14193     14194     14195     14194     14196     14195     14196
     14197     14198     14197     14199     14198     14199     14200     14201
     14200     14202     14201     14202     14203     14204     14203     14205
     14204     14205     14206     14207     14206     14208     14207     14208
     14209     14210     14209     14211     14210     14211     14212     14213
     14212     14214     14213     14214     14215     14216     14215     14217
     14216     14217     14218     14219     14218     14220     14219     14220
     14221     14222     14221     14223     14222     14223     14224     14225
     14224     14226     14225     14226     14227     14228     14227     14229
     14228     14229     14230     14231     14230     14232     14231     14232
     14233     14234     14233     14235     14234     14235     14236     14237
     14236     14238     14237     14238     14239     14240     14239     14241
     14240     14241     14242     14243     14242     14244     14243     14244
     14245     14246     14245     14247     14246     14247     14248     14249
     14248     14250     14249     14250     14251     14252     14251     14253
     14252     14253     14254     14255     14254     14256     14255     14256
     14257     14258     14257     14259     14258     14259     14260     14261
     14260     14262     14261     14262     14263     14264     14263     14265
     14264     14265     14266     14267     14266     14268     14267     14268
     14269     14270     14269     14271     14270     14271     14272     14273
     14272     14274     14273     14274     14275     14276     14275     14277
     14276     14277     14278     14279     14278     14280     14279     14280
     14281     14282     14281     14283     14282     14283     14284     14285
     14284     14286     14285     14286     14287     14288     14287     14289
     14288     14289     14290     14291     14290     14292     14291     14292
     14293     14294     14293     14295     14294     14295     14296     14297
     14296     14298     14297     14298     14299     14300     14299     14301
     14300     14301     14302     14303     14302     14304     14303     14304
     14305     14306     14305     14307     14306     14307     14308     14309
     14308     14310     14309     14310     14311     14312     14311     14313
     14312     14313     14314     14315     14314     14316     14315     14316
     14317     14318     14317     14319     14318     14319     14320     14321
     14320     14322     14321     14322     14323     14324     14323     14325
     14324     14325     14326     14327     14326     14328     14327     14328
     14329     14330     14329     14331     14330     14331     14332     14333
     14332     14334     14333     14334     14335     14336     14335     14337
     14336     14337     14338     14339     14338     14340     14339     14340
     14341     14342     14341     14343     14342     14343     14344     14345
     14344     14346     14345     14346     14347     14348     14347     14349
     14348     14349     14350     14351     14350     14352     14351     14352
     14353     14354     14353     14355     14354     14355     14356     14357
     14356     14358     14357     14358     14359     14360     14359     14361
     14360     14361     14362     14363     14362     14364     14363     14364
     14365     14366     14365     14367     14366     14367     14368     14369
     14368     14370     14369     14370     14371     14372     14371     14373
     14372     14373     14374     14375     14374     14376     14375     14376
     14377     14378     14377     14379     14378     14379     14380     14381
     14380     14382     14381     14382     14383     14384     14383     14385
     14384     14385     14386     14387     14386     14388     14387     14388
     14389     14390     14389     14391     14390     14391     14392     14393
     14392     14394     14393     14394     14395     14396     14395     14397
     14396     14397     14398     14399     14398     14400     14399     14400
     14401     14402     14401     14403     14402     14403     14404     14405
     14404     14406     14405     14406     14407     14408     14407     14409
     14408     14409     14410     14411     14410     14412     14411     14412
     14413     14414     14413     14415     14414     14415     14416     14417
     14416     14418     14417     14418     14419     14420     14419     14421
     14420     14421     14422     14423     14422     14424     14423     14424
     14425     14426     14425     14427     14426     14427     14428     14429
     14428     14430     14429     14430     14431     14432     14431     14433
     14432     14433     14434     14435     14434     14436     14435     14436
     14437     14438     14437     14439     14438     14439     14440     14441
     14440     14442     14441     14442     14443     14444     14443     14445
     14444     14445     14446     14447     14446     14448     14447     14448
     14449     14450     14449     14451     14450     14451     14452     14453
     14452     14454     14453     14454     14455     14456     14455     14457
     14456     14457     14458     14459     14458     14460     14459     14460
     14461     14462     14461     14463     14462     14463     14464     14465
     14464     14466     14465     14466     14467     14468     14467     14469
     14468     14469     14470     14471     14470     14472     14471     14472
     14473     14474     14473     14475     14474     14475     14476     14477
     14476     14478     14477     14478     14479     14480     14479     14481
     14480     14481     14482     14483     14482     14484     14483     14484
     14485     14486     14485     14487     14486     14487     14488     14489
     14488     14490     14489     14490     14491     14492     14491     14493
     14492     14493     14494     14495     14494     14496     14495     14496
     14497     14498     14497     14499     14498     14499     14500     14501
     14500     14502     14501     14502     14503     14504     14503     14505
     14504     14505     14506     14507     14506     14508     14507     14508
     14509     14510     14509     14511     14510     14511     14512     14513
     14512     14514     14513     14514     14515     14516     14515     14517
     14516     14517     14518     14519     14518     14520     14519     14520
     14521     14522     14521     14523     14522     14523     14524     14525
     14524     14526     14525     14526     14527     14528     14527     14529
     14528     14529     14530     14531     14530     14532     14531     14532
     14533     14534     14533     14535     14534     14535     14536     14537
     14536     14538     14537     14538     14539     14540     14539     14541
     14540     14541     14542     14543     14542     14544     14543     14544
     14545     14546     14545     14547     14546     14547     14548     14549
     14548     14550     14549     14550     14551     14552     14551     14553
     14552     14553     14554     14555     14554     14556     14555     14556
     14557     14558     14557     14559     14558     14559     14560     14561
     14560     14562     14561     14562     14563     14564     14563     14565
     14564     14565     14566     14567     14566     14568     14567     14568
     14569     14570     14569     14571     14570     14571     14572     14573
     14572     14574     14573     14574     14575     14576     14575     14577
     14576     14577     14578     14579     14578     14580     14579     14580
     14581     14582     14581     14583     14582     14583     14584     14585
     14584     14586     14585     14586     14587     14588     14587     14589
     14588     14589     14590     14591     14590     14592     14591     14592
     14593     14594     14593     14595     14594     14595     14596     14597
     14596     14598     14597     14598     14599     14600     14599     14601
     14600     14601     14602     14603     14602     14604     14603     14604
     14605     14606     14605     14607     14606     14607     14608     14609
     14608     14610     14609     14610     14611     14612     14611     14613
     14612     14613     14614     14615     14614     14616     14615     14616
     14617     14618     14617     14619     14618     14619     14620     14621
     14620     14622     14621     14622     14623     14624     14623     14625
     14624     14625     14626     14627     14626     14628     14627     14628
     14629     14630     14629     14631     14630     14631     14632     14633
     14632     14634     14633     14634     14635     14636     14635     14637
     14636     14637     14638     14639     14638     14640     14639     14640
     14641     14642     14641     14643     14642     14643     14644     14645
     14644     14646     14645     14646     14647     14648     14647     14649
     14648     14649     14650     14651     14650     14652     14651     14652
     14653     14654     14653     14655     14654     14655     14656     14657
     14656     14658     14657     14658     14659     14660     14659     14661
     14660     14661     14662     14663     14662     14664     14663     14664
     14665     14666     14665     14667     14666     14667     14668     14669
     14668     14670     14669     14670     14671     14672     14671     14673
     14672     14673     14674     14675     14674     14676     14675     14676
     14677     14678     14677     14679     14678     14679     14680     14681
     14680     14682     14681     14682     14683     14684     14683     14685
     14684     14685     14686     14687     14686     14688     14687     14688
     14689     14690     14689     14691     14690     14691     14692     14693
     14692     14694     14693     14694     14695     14696     14695     14697
     14696     14697     14698     14699     14698     14700     14699     14700
     14701     14702     14701     14703     14702     14703     14704     14705
     14704     14706     14705     14706     14707     14708     14707     14709
     14708     14709     14710     14711     14710     14712     14711     14712
     14713     14714     14713     14715     14714     14715     14716     14717
     14716     14718     14717     14718     14719     14720     14719     14721
     14720     14721     14722     14723     14722     14724     14723     14724
     14725     14726     14725     14727     14726     14727     14728     14729
     14728     14730     14729     14730     14731     14732     14731     14733
     14732     14733     14734     14735     14734     14736     14735     14736
     14737     14738     14737     14739     14738     14739     14740     14741
     14740     14742     14741     14742     14743     14744     14743     14745
     14744     14745     14746     14747     14746     14748     14747     14748
     14749     14750     14749     14751     14750     14751     14752     14753
     14752     14754     14753     14754     14755     14756     14755     14757
     14756     14757     14758     14759     14758     14760     14759     14760
     14761     14762     14761     14763     14762     14763     14764     14765
     14764     14766     14765     14766     14767     14768     14767     14769
     14768     14769     14770     14771     14770     14772     14771     14772
     14773     14774     14773     14775     14774     14775     14776     14777
     14776     14778     14777     14778     14779     14780     14779     14781
     14780     14781     14782     14783     14782     14784     14783     14784
     14785     14786     14785     14787     14786     14787     14788     14789
     14788     14790     14789     14790     14791     14792     14791     14793
     14792     14793     14794     14795     14794     14796     14795     14796
     14797     14798     14797     14799     14798     14799     14800     14801
     14800     14802     14801     14802     14803     14804     14803     14805
     14804     14805     14806     14807     14806     14808     14807     14808
     14809     14810     14809     14811     14810     14811     14812     14813
     14812     14814     14813     14814     14815     14816     14815     14817
     14816     14817     14818     14819     14818     14820     14819     14820
     14821     14822     14821     14823     14822     14823     14824     14825
     14824     14826     14825     14826     14827     14828     14827     14829
     14828     14829     14830     14831     14830     14832     14831     14832
     14833     14834     14833     14835     14834     14835     14836     14837
     14836     14838     14837     14838     14839     14840     14839     14841
     14840     14841     14842     14843     14842     14844     14843     14844
     14845     14846     14845     14847     14846     14847     14848     14849
     14848     14850     14849     14850     14851     14852     14851     14853
     14852     14853     14854     14855     14854     14856     14855     14856
     14857     14858     14857     14859     14858     14859     14860     14861
     14860     14862     14861     14862     14863     14864     14863     14865
     14864     14865     14866     14867     14866     14868     14867     14868
     14869     14870     14869     14871     14870     14871     14872     14873
     14872     14874     14873     14874     14875     14876     14875     14877
     14876     14877     14878     14879     14878     14880     14879     14880
     14881     14882     14881     14883     14882     14883     14884     14885
     14884     14886     14885     14886     14887     14888     14887     14889
     14888     14889     14890     14891     14890     14892     14891     14892
     14893     14894     14893     14895     14894     14895     14896     14897
     14896     14898     14897     14898     14899     14900     14899     14901
     14900     14901     14902     14903     14902     14904     14903     14904
     14905     14906     14905     14907     14906     14907     14908     14909
     14908     14910     14909     14910     14911     14912     14911     14913
     14912     14913     14914     14915     14914     14916     14915     14916
     14917     14918     14917     14919     14918     14919     14920     14921
     14920     14922     14921     14922     14923     14924     14923     14925
     14924     14925     14926     14927     14926     14928     14927     14928
     14929     14930     14929     14931     14930     14931     14932     14933
     14932     14934     14933     14934     14935     14936     14935     14937
     14936     14937     14938     14939     14938     14940     14939     14940
     14941     14942     14941     14943     14942     14943     14944     14945
     14944     14946     14945     14946     14947     14948     14947     14949
     14948     14949     14950     14951     14950     14952     14951     14952
     14953     14954     14953     14955     14954     14955     14956     14957
     14956     14958     14957     14958     14959     14960     14959     14961
     14960     14961     14962     14963     14962     14964     14963     14964
     14965     14966     14965     14967     14966     14967     14968     14969
     14968     14970     14969     14970     14971     14972     14971     14973
     14972     14973     14974     14975     14974     14976     14975     14976
     14977     14978     14977     14979     14978     14979     14980     14981
     14980     14982     14981     14982     14983     14984     14983     14985
     14984     14985     14986     14987     14986     14988     14987     14988
     14989     14990     14989     14991     14990     14991     14992     14993
     14992     14994     14993     14994     14995     14996     14995     14997
     14996     14997     14998     14999     14998     15000     14999     15000
     15001     15002     15001     15003     15002     15003     15004     15005
     15004     15006     15005     15006     15007     15008     15007     15009
     15008     15009     15010     15011     15010     15012     15011     15012
     15013     15014     15013     15015     15014     15015     15016     15017
     15016     15018     15017     15018     15019     15020     15019     15021
     15020     15021     15022     15023     15022     15024     15023     15024
     15025     15026     15025     15027     15026     15027     15028     15029
     15028     15030     15029     15030     15031     15032     15031     15033
     15032     15033     15034     15035     15034     15036     15035     15036
     15037     15038     15037     15039     15038     15039     15040     15041
     15040     15042     15041     15042     15043     15044     15043     15045
     15044     15045     15046     15047     15046     15048     15047     15048
     15049     15050     15049     15051     15050     15051     15052     15053
     15052     15054     15053     15054     15055     15056     15055     15057
     15056     15057     15058     15059     15058     15060     15059     15060
     15061     15062     15061     15063     15062     15063     15064     15065
     15064     15066     15065     15066     15067     15068     15067     15069
     15068     15069     15070     15071     15070     15072     15071     15072
     15073     15074     15073     15075     15074     15075     15076     15077
     15076     15078     15077     15078     15079     15080     15079     15081
     15080     15081     15082     15083     15082     15084     15083     15084
     15085     15086     15085     15087     15086     15087     15088     15089
     15088     15090     15089     15090     15091     15092     15091     15093
     15092     15093     15094     15095     15094     15096     15095     15096
     15097     15098     15097     15099     15098     15099     15100     15101
     15100     15102     15101     15102     15103     15104     15103     15105
     15104     15105     15106     15107     15106     15108     15107     15108
     15109     15110     15109     15111     15110     15111     15112     15113
     15112     15114     15113     15114     15115     15116     15115     15117
     15116     15117     15118     15119     15118     15120     15119     15120
     15121     15122     15121     15123     15122     15123     15124     15125
     15124     15126     15125     15126     15127     15128     15127     15129
     15128     15129     15130     15131     15130     15132     15131     15132
     15133     15134     15133     15135     15134     15135     15136     15137
     15136     15138     15137     15138     15139     15140     15139     15141
     15140     15141     15142     15143     15142     15144     15143     15144
     15145     15146     15145     15147     15146     15147     15148     15149
     15148     15150     15149     15150     15151     15152     15151     15153
     15152     15153     15154     15155     15154     15156     15155     15156
     15157     15158     15157     15159     15158     15159     15160     15161
     15160     15162     15161     15162     15163     15164     15163     15165
     15164     15165     15166     15167     15166     15168     15167     15168
     15169     15170     15169     15171     15170     15171     15172     15173
     15172     15174     15173     15174     15175     15176     15175     15177
     15176     15177     15178     15179     15178     15180     15179     15180
     15181     15182     15181     15183     15182     15183     15184     15185
     15184     15186     15185     15186     15187     15188     15187     15189
     15188     15189     15190     15191     15190     15192     15191     15192
     15193     15194     15193     15195     15194     15195     15196     15197
     15196     15198     15197     15198     15199     15200     15199     15201
     15200     15201     15202     15203     15202     15204     15203     15204
     15205     15206     15205     15207     15206     15207     15208     15209
     15208     15210     15209     15210     15211     15212     15211     15213
     15212     15213     15214     15215     15214     15216     15215     15216
     15217     15218     15217     15219     15218     15219     15220     15221
     15220     15222     15221     15222     15223     15224     15223     15225
     15224     15225     15226     15227     15226     15228     15227     15228
     15229     15230     15229     15231     15230     15231     15232     15233
     15232     15234     15233     15234     15235     15236     15235     15237
     15236     15237     15238     15239     15238     15240     15239     15240
     15241     15242     15241     15243     15242     15243     15244     15245
     15244     15246     15245     15246     15247     15248     15247     15249
     15248     15249     15250     15251     15250     15252     15251     15252
     15253     15254     15253     15255     15254     15255     15256     15257
     15256     15258     15257     15258     15259     15260     15259     15261
     15260     15261     15262     15263     15262     15264     15263     15264
     15265     15266     15265     15267     15266     15267     15268     15269
     15268     15270     15269     15270     15271     15272     15271     15273
     15272     15273     15274     15275     15274     15276     15275     15276
     15277     15278     15277     15279     15278     15279     15280     15281
     15280     15282     15281     15282     15283     15284     15283     15285
     15284     15285     15286     15287     15286     15288     15287     15288
     15289     15290     15289     15291     15290     15291     15292     15293
     15292     15294     15293     15294     15295     15296     15295     15297
     15296     15297     15298     15299     15298     15300     15299     15300
     15301     15302     15301     15303     15302     15303     15304     15305
     15304     15306     15305     15306     15307     15308     15307     15309
     15308     15309     15310     15311     15310     15312     15311     15312
     15313     15314     15313     15315     15314     15315     15316     15317
     15316     15318     15317     15318     15319     15320     15319     15321
     15320     15321     15322     15323     15322     15324     15323     15324
     15325     15326     15325     15327     15326     15327     15328     15329
     15328     15330     15329     15330     15331     15332     15331     15333
     15332     15333     15334     15335     15334     15336     15335     15336
     15337     15338     15337     15339     15338     15339     15340     15341
     15340     15342     15341     15342     15343     15344     15343     15345
     15344     15345     15346     15347     15346     15348     15347     15348
     15349     15350     15349     15351     15350     15351     15352     15353
     15352     15354     15353     15354     15355     15356     15355     15357
     15356     15357     15358     15359     15358     15360     15359     15360
     15361     15362     15361     15363     15362     15363     15364     15365
     15364     15366     15365     15366     15367     15368     15367     15369
     15368     15369     15370     15371     15370     15372     15371     15372
     15373     15374     15373     15375     15374     15375     15376     15377
     15376     15378     15377     15378     15379     15380     15379     15381
     15380     15381     15382     15383     15382     15384     15383     15384
     15385     15386     15385     15387     15386     15387     15388     15389
     15388     15390     15389     15390     15391     15392     15391     15393
     15392     15393     15394     15395     15394     15396     15395     15396
     15397     15398     15397     15399     15398     15399     15400     15401
     15400     15402     15401     15402     15403     15404     15403     15405
     15404     15405     15406     15407     15406     15408     15407     15408
     15409     15410     15409     15411     15410     15411     15412     15413
     15412     15414     15413     15414     15415     15416     15415     15417
     15416     15417     15418     15419     15418     15420     15419     15420
     15421     15422     15421     15423     15422     15423     15424     15425
     15424     15426     15425     15426     15427     15428     15427     15429
     15428     15429     15430     15431     15430     15432     15431     15432
     15433     15434     15433     15435     15434     15435     15436     15437
     15436     15438     15437     15438     15439     15440     15439     15441
     15440     15441     15442     15443     15442     15444     15443     15444
     15445     15446     15445     15447     15446     15447     15448     15449
     15448     15450     15449     15450     15451     15452     15451     15453
     15452     15453     15454     15455     15454     15456     15455     15456
     15457     15458     15457     15459     15458     15459     15460     15461
     15460     15462     15461     15462     15463     15464     15463     15465
     15464     15465     15466     15467     15466     15468     15467     15468
     15469     15470     15469     15471     15470     15471     15472     15473
     15472     15474     15473     15474     15475     15476     15475     15477
     15476     15477     15478     15479     15478     15480     15479     15480
     15481     15482     15481     15483     15482     15483     15484     15485
     15484     15486     15485     15486     15487     15488     15487     15489
     15488     15489     15490     15491     15490     15492     15491     15492
     15493     15494     15493     15495     15494     15495     15496     15497
     15496     15498     15497     15498     15499     15500     15499     15501
     15500     15501     15502     15503     15502     15504     15503     15504
     15505     15506     15505     15507     15506     15507     15508     15509
     15508     15510     15509     15510     15511     15512     15511     15513
     15512     15513     15514     15515     15514     15516     15515     15516
     15517     15518     15517     15519     15518     15519     15520     15521
     15520     15522     15521     15522     15523     15524     15523     15525
     15524     15525     15526     15527     15526     15528     15527     15528
     15529     15530     15529     15531     15530     15531     15532     15533
     15532     15534     15533     15534     15535     15536     15535     15537
     15536     15537     15538     15539     15538     15540     15539     15540
     15541     15542     15541     15543     15542     15543     15544     15545
     15544     15546     15545     15546     15547     15548     15547     15549
     15548     15549     15550     15551     15550     15552     15551     15552
     15553     15554     15553     15555     15554     15555     15556     15557
     15556     15558     15557     15558     15559     15560     15559     15561
     15560     15561     15562     15563     15562     15564     15563     15564
     15565     15566     15565     15567     15566     15567     15568     15569
     15568     15570     15569     15570     15571     15572     15571     15573
     15572     15573     15574     15575     15574     15576     15575     15576
     15577     15578     15577     15579     15578     15579     15580     15581
     15580     15582     15581     15582     15583     15584     15583     15585
     15584     15585     15586     15587     15586     15588     15587     15588
     15589     15590     15589     15591     15590     15591     15592     15593
     15592     15594     15593     15594     15595     15596     15595     15597
     15596     15597     15598     15599     15598     15600     15599     15600
     15601     15602     15601     15603     15602     15603     15604     15605
     15604     15606     15605     15606     15607     15608     15607     15609
     15608     15609     15610     15611     15610     15612     15611     15612
     15613     15614     15613     15615     15614     15615     15616     15617
     15616     15618     15617     15618     15619     15620     15619     15621
     15620     15621     15622     15623     15622     15624     15623     15624
     15625     15626     15625     15627     15626     15627     15628     15629
     15628     15630     15629     15630     15631     15632     15631     15633
     15632     15633     15634     15635     15634     15636     15635     15636
     15637     15638     15637     15639     15638     15639     15640     15641
     15640     15642     15641     15642     15643     15644     15643     15645
     15644     15645     15646     15647     15646     15648     15647     15648
     15649     15650     15649     15651     15650     15651     15652     15653
     15652     15654     15653     15654     15655     15656     15655     15657
     15656     15657     15658     15659     15658     15660     15659     15660
     15661     15662     15661     15663     15662     15663     15664     15665
     15664     15666     15665     15666     15667     15668     15667     15669
     15668     15669     15670     15671     15670     15672     15671     15672
     15673     15674     15673     15675     15674     15675     15676     15677
     15676     15678     15677     15678     15679     15680     15679     15681
     15680     15681     15682     15683     15682     15684     15683     15684
     15685     15686     15685     15687     15686     15687     15688     15689
     15688     15690     15689     15690     15691     15692     15691     15693
     15692     15693     15694     15695     15694     15696     15695     15696
     15697     15698     15697     15699     15698     15699     15700     15701
     15700     15702     15701     15702     15703     15704     15703     15705
     15704     15705     15706     15707     15706     15708     15707     15708
     15709     15710     15709     15711     15710     15711     15712     15713
     15712     15714     15713     15714     15715     15716     15715     15717
     15716     15717     15718     15719     15718     15720     15719     15720
     15721     15722     15721     15723     15722     15723     15724     15725
     15724     15726     15725     15726     15727     15728     15727     15729
     15728     15729     15730     15731     15730     15732     15731     15732
     15733     15734     15733     15735     15734     15735     15736     15737
     15736     15738     15737     15738     15739     15740     15739     15741
     15740     15741     15742     15743     15742     15744     15743     15744
     15745     15746     15745     15747     15746     15747     15748     15749
     15748     15750     15749     15750     15751     15752     15751     15753
     15752     15753     15754     15755     15754     15756     15755     15756
     15757     15758     15757     15759     15758     15759     15760     15761
     15760     15762     15761     15762     15763     15764     15763     15765
     15764     15765     15766     15767     15766     15768     15767     15768
     15769     15770     15769     15771     15770     15771     15772     15773
     15772     15774     15773     15774     15775     15776     15775     15777
     15776     15777     15778     15779     15778     15780     15779     15780
     15781     15782     15781     15783     15782     15783     15784     15785
     15784     15786     15785     15786     15787     15788     15787     15789
     15788     15789     15790     15791     15790     15792     15791     15792
     15793     15794     15793     15795     15794     15795     15796     15797
     15796     15798     15797     15798     15799     15800     15799     15801
     15800     15801     15802     15803     15802     15804     15803     15804
     15805     15806     15805     15807     15806     15807     15808     15809
     15808     15810     15809     15810     15811     15812     15811     15813
     15812     15813     15814     15815     15814     15816     15815     15816
     15817     15818     15817     15819     15818     15819     15820     15821
     15820     15822     15821     15822     15823     15824     15823     15825
     15824     15825     15826     15827     15826     15828     15827     15828
     15829     15830     15829     15831     15830     15831     15832     15833
     15832     15834     15833     15834     15835     15836     15835     15837
     15836     15837     15838     15839     15838     15840     15839     15840
     15841     15842     15841     15843     15842     15843     15844     15845
     15844     15846     15845     15846     15847     15848     15847     15849
     15848     15849     15850     15851     15850     15852     15851     15852
     15853     15854     15853     15855     15854     15855     15856     15857
     15856     15858     15857     15858     15859     15860     15859     15861
     15860     15861     15862     15863     15862     15864     15863     15864
     15865     15866     15865     15867     15866     15867     15868     15869
     15868     15870     15869     15870     15871     15872     15871     15873
     15872     15873     15874     15875     15874     15876     15875     15876
     15877     15878     15877     15879     15878     15879     15880     15881
     15880     15882     15881     15882     15883     15884     15883     15885
     15884     15885     15886     15887     15886     15888     15887     15888
     15889     15890     15889     15891     15890     15891     15892     15893
     15892     15894     15893     15894     15895     15896     15895     15897
     15896     15897     15898     15899     15898     15900     15899     15900
     15901     15902     15901     15903     15902     15903     15904     15905
     15904     15906     15905     15906     15907     15908     15907     15909
     15908     15909     15910     15911     15910     15912     15911     15912
     15913     15914     15913     15915     15914     15915     15916     15917
     15916     15918     15917     15918     15919     15920     15919     15921
     15920     15921     15922     15923     15922     15924     15923     15924
     15925     15926     15925     15927     15926     15927     15928     15929
     15928     15930     15929     15930     15931     15932     15931     15933
     15932     15933     15934     15935     15934     15936     15935     15936
     15937     15938     15937     15939     15938     15939     15940     15941
     15940     15942     15941     15942     15943     15944     15943     15945
     15944     15945     15946     15947     15946     15948     15947     15948
     15949     15950     15949     15951     15950     15951     15952     15953
     15952     15954     15953     15954     15955     15956     15955     15957
     15956     15957     15958     15959     15958     15960     15959     15960
     15961     15962     15961     15963     15962     15963     15964     15965
     15964     15966     15965     15966     15967     15968     15967     15969
     15968     15969     15970     15971     15970     15972     15971     15972
     15973     15974     15973     15975     15974     15975     15976     15977
     15976     15978     15977     15978     15979     15980     15979     15981
     15980     15981     15982     15983     15982     15984     15983     15984
     15985     15986     15985     15987     15986     15987     15988     15989
     15988     15990     15989     15990     15991     15992     15991     15993
     15992     15993     15994     15995     15994     15996     15995     15996
     15997     15998     15997     15999     15998     15999     16000     16001
     16000     16002     16001     16002     16003     16004     16003     16005
     16004     16005     16006     16007     16006     16008     16007     16008
     16009     16010     16009     16011     16010     16011     16012     16013
     16012     16014     16013     16014     16015     16016     16015     16017
     16016     16017     16018     16019     16018     16020     16019     16020
     16021     16022     16021     16023     16022     16023     16024     16025
     16024     16026     16025     16026     16027     16028     16027     16029
     16028     16029     16030     16031     16030     16032     16031     16032
     16033     16034     16033     16035     16034     16035     16036     16037
     16036     16038     16037     16038     16039     16040     16039     16041
     16040     16041     16042     16043     16042     16044     16043     16044
     16045     16046     16045     16047     16046     16047     16048     16049
     16048     16050     16049     16050     16051     16052     16051     16053
     16052     16053     16054     16055     16054     16056     16055     16056
     16057     16058     16057     16059     16058     16059     16060     16061
     16060     16062     16061     16062     16063     16064     16063     16065
     16064     16065     16066     16067     16066     16068     16067     16068
     16069     16070     16069     16071     16070     16071     16072     16073
     16072     16074     16073     16074     16075     16076     16075     16077
     16076     16077     16078     16079     16078     16080     16079     16080
     16081     16082     16081     16083     16082     16083     16084     16085
     16084     16086     16085     16086     16087     16088     16087     16089
     16088     16089     16090     16091     16090     16092     16091     16092
     16093     16094     16093     16095     16094     16095     16096     16097
     16096     16098     16097     16098     16099     16100     16099     16101
     16100     16101     16102     16103     16102     16104     16103     16104
     16105     16106     16105     16107     16106     16107     16108     16109
     16108     16110     16109     16110     16111     16112     16111     16113
     16112     16113     16114     16115     16114     16116     16115     16116
     16117     16118     16117     16119     16118     16119     16120     16121
     16120     16122     16121     16122     16123     16124     16123     16125
     16124     16125     16126     16127     16126     16128     16127     16128
     16129     16130     16129     16131     16130     16131     16132     16133
     16132     16134     16133     16134     16135     16136     16135     16137
     16136     16137     16138     16139     16138     16140     16139     16140
     16141     16142     16141     16143     16142     16143     16144     16145
     16144     16146     16145     16146     16147     16148     16147     16149
     16148     16149     16150     16151     16150     16152     16151     16152
     16153     16154     16153     16155     16154     16155     16156     16157
     16156     16158     16157     16158     16159     16160     16159     16161
     16160     16161     16162     16163     16162     16164     16163     16164
     16165     16166     16165     16167     16166     16167     16168     16169
     16168     16170     16169     16170     16171     16172     16171     16173
     16172     16173     16174     16175     16174     16176     16175     16176
     16177     16178     16177     16179     16178     16179     16180     16181
     16180     16182     16181     16182     16183     16184     16183     16185
     16184     16185     16186     16187     16186     16188     16187     16188
     16189     16190     16189     16191     16190     16191     16192     16193
     16192     16194     16193     16194     16195     16196     16195     16197
     16196     16197     16198     16199     16198     16200     16199     16200
     16201     16202     16201     16203     16202     16203     16204     16205
     16204     16206     16205     16206     16207     16208     16207     16209
     16208     16209     16210     16211     16210     16212     16211     16212
     16213     16214     16213     16215     16214     16215     16216     16217
     16216     16218     16217     16218     16219     16220     16219     16221
     16220     16221     16222     16223     16222     16224     16223     16224
     16225     16226     16225     16227     16226     16227     16228     16229
     16228     16230     16229     16230     16231     16232     16231     16233
     16232     16233     16234     16235     16234     16236     16235     16236
     16237     16238     16237     16239     16238     16239     16240     16241
     16240     16242     16241     16242     16243     16244     16243     16245
     16244     16245     16246     16247     16246     16248     16247     16248
     16249     16250     16249     16251     16250     16251     16252     16253
     16252     16254     16253     16254     16255     16256     16255     16257
     16256     16257     16258     16259     16258     16260     16259     16260
     16261     16262     16261     16263     16262     16263     16264     16265
     16264     16266     16265     16266     16267     16268     16267     16269
     16268     16269     16270     16271     16270     16272     16271     16272
     16273     16274     16273     16275     16274     16275     16276     16277
     16276     16278     16277     16278     16279     16280     16279     16281
     16280     16281     16282     16283     16282     16284     16283     16284
     16285     16286     16285     16287     16286     16287     16288     16289
     16288     16290     16289     16290     16291     16292     16291     16293
     16292     16293     16294     16295     16294     16296     16295     16296
     16297     16298     16297     16299     16298     16299     16300     16301
     16300     16302     16301     16302     16303     16304     16303     16305
     16304     16305     16306     16307     16306     16308     16307     16308
     16309     16310     16309     16311     16310     16311     16312     16313
     16312     16314     16313     16314     16315     16316     16315     16317
     16316     16317     16318     16319     16318     16320     16319     16320
     16321     16322     16321     16323     16322     16323     16324     16325
     16324     16326     16325     16326     16327     16328     16327     16329
     16328     16329     16330     16331     16330     16332     16331     16332
     16333     16334     16333     16335     16334     16335     16336     16337
     16336     16338     16337     16338     16339     16340     16339     16341
     16340     16341     16342     16343     16342     16344     16343     16344
     16345     16346     16345     16347     16346     16347     16348     16349
     16348     16350     16349     16350     16351     16352     16351     16353
     16352     16353     16354     16355     16354     16356     16355     16356
     16357     16358     16357     16359     16358     16359     16360     16361
     16360     16362     16361     16362     16363     16364     16363     16365
     16364     16365     16366     16367     16366     16368     16367     16368
     16369     16370     16369     16371     16370     16371     16372     16373
     16372     16374     16373     16374     16375     16376     16375     16377
     16376     16377     16378     16379     16378     16380     16379     16380
     16381     16382     16381     16383     16382     16383     16384     16385
     16384     16386     16385     16386     16387     16388     16387     16389
     16388     16389     16390     16391     16390     16392     16391     16392
     16393     16394     16393     16395     16394     16395     16396     16397
     16396     16398     16397     16398     16399     16400     16399     16401
     16400     16401     16402     16403     16402     16404     16403     16404
     16405     16406     16405     16407     16406     16407     16408     16409
     16408     16410     16409     16410     16411     16412     16411     16413
     16412     16413     16414     16415     16414     16416     16415     16416
     16417     16418     16417     16419     16418     16419     16420     16421
     16420     16422     16421     16422     16423     16424     16423     16425
     16424     16425     16426     16427     16426     16428     16427     16428
     16429     16430     16429     16431     16430     16431     16432     16433
     16432     16434     16433     16434     16435     16436     16435     16437
     16436     16437     16438     16439     16438     16440     16439     16440
     16441     16442     16441     16443     16442     16443     16444     16445
     16444     16446     16445     16446     16447     16448     16447     16449
     16448     16449     16450     16451     16450     16452     16451     16452
     16453     16454     16453     16455     16454     16455     16456     16457
     16456     16458     16457     16458     16459     16460     16459     16461
     16460     16461     16462     16463     16462     16464     16463     16464
     16465     16466     16465     16467     16466     16467     16468     16469
     16468     16470     16469     16470     16471     16472     16471     16473
     16472     16473     16474     16475     16474     16476     16475     16476
     16477     16478     16477     16479     16478     16479     16480     16481
     16480     16482     16481     16482     16483     16484     16483     16485
     16484     16485     16486     16487     16486     16488     16487     16488
     16489     16490     16489     16491     16490     16491     16492     16493
     16492     16494     16493     16494     16495     16496     16495     16497
     16496     16497     16498     16499     16498     16500     16499     16500
     16501     16502     16501     16503     16502     16503     16504     16505
     16504     16506     16505     16506     16507     16508     16507     16509
     16508     16509     16510     16511     16510     16512     16511     16512
     16513     16514     16513     16515     16514     16515     16516     16517
     16516     16518     16517     16518     16519     16520     16519     16521
     16520     16521     16522     16523     16522     16524     16523     16524
     16525     16526     16525     16527     16526     16527     16528     16529
     16528     16530     16529     16530     16531     16532     16531     16533
     16532     16533     16534     16535     16534     16536     16535     16536
     16537     16538     16537     16539     16538     16539     16540     16541
     16540     16542     16541     16542     16543     16544     16543     16545
     16544     16545     16546     16547     16546     16548     16547     16548
     16549     16550     16549     16551     16550     16551     16552     16553
     16552     16554     16553     16554     16555     16556     16555     16557
     16556     16557     16558     16559     16558     16560     16559     16560
     16561     16562     16561     16563     16562     16563     16564     16565
     16564     16566     16565     16566     16567     16568     16567     16569
     16568     16569     16570     16571     16570     16572     16571     16572
     16573     16574     16573     16575     16574     16575     16576     16577
     16576     16578     16577     16578     16579     16580     16579     16581
     16580     16581     16582     16583     16582     16584     16583     16584
     16585     16586     16585     16587     16586     16587     16588     16589
     16588     16590     16589     16590     16591     16592     16591     16593
     16592     16593     16594     16595     16594     16596     16595     16596
     16597     16598     16597     16599     16598     16599     16600     16601
     16600     16602     16601     16602     16603     16604     16603     16605
     16604     16605     16606     16607     16606     16608     16607     16608
     16609     16610     16609     16611     16610     16611     16612     16613
     16612     16614     16613     16614     16615     16616     16615     16617
     16616     16617     16618     16619     16618     16620     16619     16620
     16621     16622     16621     16623     16622     16623     16624     16625
     16624     16626     16625     16626     16627     16628     16627     16629
     16628     16629     16630     16631     16630     16632     16631     16632
     16633     16634     16633     16635     16634     16635     16636     16637
     16636     16638     16637     16638     16639     16640     16639     16641
     16640     16641     16642     16643     16642     16644     16643     16644
     16645     16646     16645     16647     16646     16647     16648     16649
     16648     16650     16649     16650     16651     16652     16651     16653
     16652     16653     16654     16655     16654     16656     16655     16656
     16657     16658     16657     16659     16658     16659     16660     16661
     16660     16662     16661     16662     16663     16664     16663     16665
     16664     16665     16666     16667     16666     16668     16667     16668
     16669     16670     16669     16671     16670     16671     16672     16673
     16672     16674     16673     16674     16675     16676     16675     16677
     16676     16677     16678     16679     16678     16680     16679     16680
     16681     16682     16681     16683     16682     16683     16684     16685
     16684     16686     16685     16686     16687     16688     16687     16689
     16688     16689     16690     16691     16690     16692     16691     16692
     16693     16694     16693     16695     16694     16695     16696     16697
     16696     16698     16697     16698     16699     16700     16699     16701
     16700     16701     16702     16703     16702     16704     16703     16704
     16705     16706     16705     16707     16706     16707     16708     16709
     16708     16710     16709     16710     16711     16712     16711     16713
     16712     16713     16714     16715     16714     16716     16715     16716
     16717     16718     16717     16719     16718     16719     16720     16721
     16720     16722     16721     16722     16723     16724     16723     16725
     16724     16725     16726     16727     16726     16728     16727     16728
     16729     16730     16729     16731     16730     16731     16732     16733
     16732     16734     16733     16734     16735     16736     16735     16737
     16736     16737     16738     16739     16738     16740     16739     16740
     16741     16742     16741     16743     16742     16743     16744     16745
     16744     16746     16745     16746     16747     16748     16747     16749
     16748     16749     16750     16751     16750     16752     16751     16752
     16753     16754     16753     16755     16754     16755     16756     16757
     16756     16758     16757     16758     16759     16760     16759     16761
     16760     16761     16762     16763     16762     16764     16763     16764
     16765     16766     16765     16767     16766     16767     16768     16769
     16768     16770     16769     16770     16771     16772     16771     16773
     16772     16773     16774     16775     16774     16776     16775     16776
     16777     16778     16777     16779     16778     16779     16780     16781
     16780     16782     16781     16782     16783     16784     16783     16785
     16784     16785     16786     16787     16786     16788     16787     16788
     16789     16790     16789     16791     16790     16791     16792     16793
     16792     16794     16793     16794     16795     16796     16795     16797
     16796     16797     16798     16799     16798     16800     16799     16800
     16801     16802     16801     16803     16802     16803     16804     16805
     16804     16806     16805     16806     16807     16808     16807     16809
     16808     16809     16810     16811     16810     16812     16811     16812
     16813     16814     16813     16815     16814     16815     16816     16817
     16816     16818     16817     16818     16819     16820     16819     16821
     16820     16821     16822     16823     16822     16824     16823     16824
     16825     16826     16825     16827     16826     16827     16828     16829
     16828     16830     16829     16830     16831     16832     16831     16833
     16832     16833     16834     16835     16834     16836     16835     16836
     16837     16838     16837     16839     16838     16839     16840     16841
     16840     16842     16841     16842     16843     16844     16843     16845
     16844     16845     16846     16847     16846     16848     16847     16848
     16849     16850     16849     16851     16850     16851     16852     16853
     16852     16854     16853     16854     16855     16856     16855     16857
     16856     16857     16858     16859     16858     16860     16859     16860
     16861     16862     16861     16863     16862     16863     16864     16865
     16864     16866     16865     16866     16867     16868     16867     16869
     16868     16869     16870     16871     16870     16872     16871     16872
     16873     16874     16873     16875     16874     16875     16876     16877
     16876     16878     16877     16878     16879     16880     16879     16881
     16880     16881     16882     16883     16882     16884     16883     16884
     16885     16886     16885     16887     16886     16887     16888     16889
     16888     16890     16889     16890     16891     16892     16891     16893
     16892     16893     16894     16895     16894     16896     16895     16896
     16897     16898     16897     16899     16898     16899     16900     16901
     16900     16902     16901     16902     16903     16904     16903     16905
     16904     16905     16906     16907     16906     16908     16907     16908
     16909     16910     16909     16911     16910     16911     16912     16913
     16912     16914     16913     16914     16915     16916     16915     16917
     16916     16917     16918     16919     16918     16920     16919     16920
     16921     16922     16921     16923     16922     16923     16924     16925
     16924     16926     16925     16926     16927     16928     16927     16929
     16928     16929     16930     16931     16930     16932     16931     16932
     16933     16934     16933     16935     16934     16935     16936     16937
     16936     16938     16937     16938     16939     16940     16939     16941
     16940     16941     16942     16943     16942     16944     16943     16944
     16945     16946     16945     16947     16946     16947     16948     16949
     16948     16950     16949     16950     16951     16952     16951     16953
     16952     16953     16954     16955     16954     16956     16955     16956
     16957     16958     16957     16959     16958     16959     16960     16961
     16960     16962     16961     16962     16963     16964     16963     16965
     16964     16965     16966     16967     16966     16968     16967     16968
     16969     16970     16969     16971     16970     16971     16972     16973
     16972     16974     16973     16974     16975     16976     16975     16977
     16976     16977     16978     16979     16978     16980     16979     16980
     16981     16982     16981     16983     16982     16983     16984     16985
     16984     16986     16985     16986     16987     16988     16987     16989
     16988     16989     16990     16991     16990     16992     16991     16992
     16993     16994     16993     16995     16994     16995     16996     16997
     16996     16998     16997     16998     16999     17000     16999     17001
     17000     17001     17002     17003     17002     17004     17003     17004
     17005     17006     17005     17007     17006     17007     17008     17009
     17008     17010     17009     17010     17011     17012     17011     17013
     17012     17013     17014     17015     17014     17016     17015     17016
     17017     17018     17017     17019     17018     17019     17020     17021
     17020     17022     17021     17022     17023     17024     17023     17025
     17024     17025     17026     17027     17026     17028     17027     17028
     17029     17030     17029     17031     17030     17031     17032     17033
     17032     17034     17033     17034     17035     17036     17035     17037
     17036     17037     17038     17039     17038     17040     17039     17040
     17041     17042     17041     17043     17042     17043     17044     17045
     17044     17046     17045     17046     17047     17048     17047     17049
     17048     17049     17050     17051     17050     17052     17051     17052
     17053     17054     17053     17055     17054     17055     17056     17057
     17056     17058     17057     17058     17059     17060     17059     17061
     17060     17061     17062     17063     17062     17064     17063     17064
     17065     17066     17065     17067     17066     17067     17068     17069
     17068     17070     17069     17070     17071     17072     17071     17073
     17072     17073     17074     17075     17074     17076     17075     17076
     17077     17078     17077     17079     17078     17079     17080     17081
     17080     17082     17081     17082     17083     17084     17083     17085
     17084     17085     17086     17087     17086     17088     17087     17088
     17089     17090     17089     17091     17090     17091     17092     17093
     17092     17094     17093     17094     17095     17096     17095     17097
     17096     17097     17098     17099     17098     17100     17099     17100
     17101     17102     17101     17103     17102     17103     17104     17105
     17104     17106     17105     17106     17107     17108     17107     17109
     17108     17109     17110     17111     17110     17112     17111     17112
     17113     17114     17113     17115     17114     17115     17116     17117
     17116     17118     17117     17118     17119     17120     17119     17121
     17120     17121     17122     17123     17122     17124     17123     17124
     17125     17126     17125     17127     17126     17127     17128     17129
     17128     17130     17129     17130     17131     17132     17131     17133
     17132     17133     17134     17135     17134     17136     17135     17136
     17137     17138     17137     17139     17138     17139     17140     17141
     17140     17142     17141     17142     17143     17144     17143     17145
     17144     17145     17146     17147     17146     17148     17147     17148
     17149     17150     17149     17151     17150     17151     17152     17153
     17152     17154     17153     17154     17155     17156     17155     17157
     17156     17157     17158     17159     17158     17160     17159     17160
     17161     17162     17161     17163     17162     17163     17164     17165
     17164     17166     17165     17166     17167     17168     17167     17169
     17168     17169     17170     17171     17170     17172     17171     17172
     17173     17174     17173     17175     17174     17175     17176     17177
     17176     17178     17177     17178     17179     17180     17179     17181
     17180     17181     17182     17183     17182     17184     17183     17184
     17185     17186     17185     17187     17186     17187     17188     17189
     17188     17190     17189     17190     17191     17192     17191     17193
     17192     17193     17194     17195     17194     17196     17195     17196
     17197     17198     17197     17199     17198     17199     17200     17201
     17200     17202     17201     17202     17203     17204     17203     17205
     17204     17205     17206     17207     17206     17208     17207     17208
     17209     17210     17209     17211     17210     17211     17212     17213
     17212     17214     17213     17214     17215     17216     17215     17217
     17216     17217     17218     17219     17218     17220     17219     17220
     17221     17222     17221     17223     17222     17223     17224     17225
     17224     17226     17225     17226     17227     17228     17227     17229
     17228     17229     17230     17231     17230     17232     17231     17232
     17233     17234     17233     17235     17234     17235     17236     17237
     17236     17238     17237     17238     17239     17240     17239     17241
     17240     17241     17242     17243     17242     17244     17243     17244
     17245     17246     17245     17247     17246     17247     17248     17249
     17248     17250     17249     17250     17251     17252     17251     17253
     17252     17253     17254     17255     17254     17256     17255     17256
     17257     17258     17257     17259     17258     17259     17260     17261
     17260     17262     17261     17262     17263     17264     17263     17265
     17264     17265     17266     17267     17266     17268     17267     17268
     17269     17270     17269     17271     17270     17271     17272     17273
     17272     17274     17273     17274     17275     17276     17275     17277
     17276     17277     17278     17279     17278     17280     17279     17280
     17281     17282     17281     17283     17282     17283     17284     17285
     17284     17286     17285     17286     17287     17288     17287     17289
     17288     17289     17290     17291     17290     17292     17291     17292
     17293     17294     17293     17295     17294     17295     17296     17297
     17296     17298     17297     17298     17299     17300     17299     17301
     17300     17301     17302     17303     17302     17304     17303     17304
     17305     17306     17305     17307     17306     17307     17308     17309
     17308     17310     17309     17310     17311     17312     17311     17313
     17312     17313     17314     17315     17314     17316     17315     17316
     17317     17318     17317     17319     17318     17319     17320     17321
     17320     17322     17321     17322     17323     17324     17323     17325
     17324     17325     17326     17327     17326     17328     17327     17328
     17329     17330     17329     17331     17330     17331     17332     17333
     17332     17334     17333     17334     17335     17336     17335     17337
     17336     17337     17338     17339     17338     17340     17339     17340
     17341     17342     17341     17343     17342     17343     17344     17345
     17344     17346     17345     17346     17347     17348     17347     17349
     17348     17349     17350     17351     17350     17352     17351     17352
     17353     17354     17353     17355     17354     17355     17356     17357
     17356     17358     17357     17358     17359     17360     17359     17361
     17360     17361     17362     17363     17362     17364     17363     17364
     17365     17366     17365     17367     17366     17367     17368     17369
     17368     17370     17369     17370     17371     17372     17371     17373
     17372     17373     17374     17375     17374     17376     17375     17376
     17377     17378     17377     17379     17378     17379     17380     17381
     17380     17382     17381     17382     17383     17384     17383     17385
     17384     17385     17386     17387     17386     17388     17387     17388
     17389     17390     17389     17391     17390     17391     17392     17393
     17392     17394     17393     17394     17395     17396     17395     17397
     17396     17397     17398     17399     17398     17400     17399     17400
     17401     17402     17401     17403     17402     17403     17404     17405
     17404     17406     17405     17406     17407     17408     17407     17409
     17408     17409     17410     17411     17410     17412     17411     17412
     17413     17414     17413     17415     17414     17415     17416     17417
     17416     17418     17417     17418     17419     17420     17419     17421
     17420     17421     17422     17423     17422     17424     17423     17424
     17425     17426     17425     17427     17426     17427     17428     17429
     17428     17430     17429     17430     17431     17432     17431     17433
     17432     17433     17434     17435     17434     17436     17435     17436
     17437     17438     17437     17439     17438     17439     17440     17441
     17440     17442     17441     17442     17443     17444     17443     17445
     17444     17445     17446     17447     17446     17448     17447     17448
     17449     17450     17449     17451     17450     17451     17452     17453
     17452     17454     17453     17454     17455     17456     17455     17457
     17456     17457     17458     17459     17458     17460     17459     17460
     17461     17462     17461     17463     17462     17463     17464     17465
     17464     17466     17465     17466     17467     17468     17467     17469
     17468     17469     17470     17471     17470     17472     17471     17472
     17473     17474     17473     17475     17474     17475     17476     17477
     17476     17478     17477     17478     17479     17480     17479     17481
     17480     17481     17482     17483     17482     17484     17483     17484
     17485     17486     17485     17487     17486     17487     17488     17489
     17488     17490     17489     17490     17491     17492     17491     17493
     17492     17493     17494     17495     17494     17496     17495     17496
     17497     17498     17497     17499     17498     17499     17500     17501
     17500     17502     17501     17502     17503     17504     17503     17505
     17504     17505     17506     17507     17506     17508     17507     17508
     17509     17510     17509     17511     17510     17511     17512     17513
     17512     17514     17513     17514     17515     17516     17515     17517
     17516     17517     17518     17519     17518     17520     17519     17520
     17521     17522     17521     17523     17522     17523     17524     17525
     17524     17526     17525     17526     17527     17528     17527     17529
     17528     17529     17530     17531     17530     17532     17531     17532
     17533     17534     17533     17535     17534     17535     17536     17537
     17536     17538     17537     17538     17539     17540     17539     17541
     17540     17541     17542     17543     17542     17544     17543     17544
     17545     17546     17545     17547     17546     17547     17548     17549
     17548     17550     17549     17550     17551     17552     17551     17553
     17552     17553     17554     17555     17554     17556     17555     17556
     17557     17558     17557     17559     17558     17559     17560     17561
     17560     17562     17561     17562     17563     17564     17563     17565
     17564     17565     17566     17567     17566     17568     17567     17568
     17569     17570     17569     17571     17570     17571     17572     17573
     17572     17574     17573     17574     17575     17576     17575     17577
     17576     17577     17578     17579     17578     17580     17579     17580
     17581     17582     17581     17583     17582     17583     17584     17585
     17584     17586     17585     17586     17587     17588     17587     17589
     17588     17589     17590     17591     17590     17592     17591     17592
     17593     17594     17593     17595     17594     17595     17596     17597
     17596     17598     17597     17598     17599     17600     17599     17601
     17600     17601     17602     17603     17602     17604     17603     17604
     17605     17606     17605     17607     17606     17607     17608     17609
     17608     17610     17609     17610     17611     17612     17611     17613
     17612     17613     17614     17615     17614     17616     17615     17616
     17617     17618     17617     17619     17618     17619     17620     17621
     17620     17622     17621     17622     17623     17624     17623     17625
     17624     17625     17626     17627     17626     17628     17627     17628
     17629     17630     17629     17631     17630     17631     17632     17633
     17632     17634     17633     17634     17635     17636     17635     17637
     17636     17637     17638     17639     17638     17640     17639     17640
     17641     17642     17641     17643     17642     17643     17644     17645
     17644     17646     17645     17646     17647     17648     17647     17649
     17648     17649     17650     17651     17650     17652     17651     17652
     17653     17654     17653     17655     17654     17655     17656     17657
     17656     17658     17657     17658     17659     17660     17659     17661
     17660     17661     17662     17663     17662     17664     17663     17664
     17665     17666     17665     17667     17666     17667     17668     17669
     17668     17670     17669     17670     17671     17672     17671     17673
     17672     17673     17674     17675     17674     17676     17675     17676
     17677     17678     17677     17679     17678     17679     17680     17681
     17680     17682     17681     17682     17683     17684     17683     17685
     17684     17685     17686     17687     17686     17688     17687     17688
     17689     17690     17689     17691     17690     17691     17692     17693
     17692     17694     17693     17694     17695     17696     17695     17697
     17696     17697     17698     17699     17698     17700     17699     17700
     17701     17702     17701     17703     17702     17703     17704     17705
     17704     17706     17705     17706     17707     17708     17707     17709
     17708     17709     17710     17711     17710     17712     17711     17712
     17713     17714     17713     17715     17714     17715     17716     17717
     17716     17718     17717     17718     17719     17720     17719     17721
     17720     17721     17722     17723     17722     17724     17723     17724
     17725     17726     17725     17727     17726     17727     17728     17729
     17728     17730     17729     17730     17731     17732     17731     17733
     17732     17733     17734     17735     17734     17736     17735     17736
     17737     17738     17737     17739     17738     17739     17740     17741
     17740     17742     17741     17742     17743     17744     17743     17745
     17744     17745     17746     17747     17746     17748     17747     17748
     17749     17750     17749     17751     17750     17751     17752     17753
     17752     17754     17753     17754     17755     17756     17755     17757
     17756     17757     17758     17759     17758     17760     17759     17760
     17761     17762     17761     17763     17762     17763     17764     17765
     17764     17766     17765     17766     17767     17768     17767     17769
     17768     17769     17770     17771     17770     17772     17771     17772
     17773     17774     17773     17775     17774     17775     17776     17777
     17776     17778     17777     17778     17779     17780     17779     17781
     17780     17781     17782     17783     17782     17784     17783     17784
     17785     17786     17785     17787     17786     17787     17788     17789
     17788     17790     17789     17790     17791     17792     17791     17793
     17792     17793     17794     17795     17794     17796     17795     17796
     17797     17798     17797     17799     17798     17799     17800     17801
     17800     17802     17801     17802     17803     17804     17803     17805
     17804     17805     17806     17807     17806     17808     17807     17808
     17809     17810     17809     17811     17810     17811     17812     17813
     17812     17814     17813     17814     17815     17816     17815     17817
     17816     17817     17818     17819     17818     17820     17819     17820
     17821     17822     17821     17823     17822     17823     17824     17825
     17824     17826     17825     17826     17827     17828     17827     17829
     17828     17829     17830     17831     17830     17832     17831     17832
     17833     17834     17833     17835     17834     17835     17836     17837
     17836     17838     17837     17838     17839     17840     17839     17841
     17840     17841     17842     17843     17842     17844     17843     17844
     17845     17846     17845     17847     17846     17847     17848     17849
     17848     17850     17849     17850     17851     17852     17851     17853
     17852     17853     17854     17855     17854     17856     17855     17856
     17857     17858     17857     17859     17858     17859     17860     17861
     17860     17862     17861     17862     17863     17864     17863     17865
     17864     17865     17866     17867     17866     17868     17867     17868
     17869     17870     17869     17871     17870     17871     17872     17873
     17872     17874     17873     17874     17875     17876     17875     17877
     17876     17877     17878     17879     17878     17880     17879     17880
     17881     17882     17881     17883     17882     17883     17884     17885
     17884     17886     17885     17886     17887     17888     17887     17889
     17888     17889     17890     17891     17890     17892     17891     17892
     17893     17894     17893     17895     17894     17895     17896     17897
     17896     17898     17897     17898     17899     17900     17899     17901
     17900     17901     17902     17903     17902     17904     17903     17904
     17905     17906     17905     17907     17906     17907     17908     17909
     17908     17910     17909     17910     17911     17912     17911     17913
     17912     17913     17914     17915     17914     17916     17915     17916
     17917     17918     17917     17919     17918     17919     17920     17921
     17920     17922     17921     17922     17923     17924     17923     17925
     17924     17925     17926     17927     17926     17928     17927     17928
     17929     17930     17929     17931     17930     17931     17932     17933
     17932     17934     17933     17934     17935     17936     17935     17937
     17936     17937     17938     17939     17938     17940     17939     17940
     17941     17942     17941     17943     17942     17943     17944     17945
     17944     17946     17945     17946     17947     17948     17947     17949
     17948     17949     17950     17951     17950     17952     17951     17952
     17953     17954     17953     17955     17954     17955     17956     17957
     17956     17958     17957     17958     17959     17960     17959     17961
     17960     17961     17962     17963     17962     17964     17963     17964
     17965     17966     17965     17967     17966     17967     17968     17969
     17968     17970     17969     17970     17971     17972     17971     17973
     17972     17973     17974     17975     17974     17976     17975     17976
     17977     17978     17977     17979     17978     17979     17980     17981
     17980     17982     17981     17982     17983     17984     17983     17985
     17984     17985     17986     17987     17986     17988     17987     17988
     17989     17990     17989     17991     17990     17991     17992     17993
     17992     17994     17993     17994     17995     17996     17995     17997
     17996     17997     17998     17999     17998     18000     17999     18000
     18001     18002     18001     18003     18002     18003     18004     18005
     18004     18006     18005     18006     18007     18008     18007     18009
     18008     18009     18010     18011     18010     18012     18011     18012
     18013     18014     18013     18015     18014     18015     18016     18017
     18016     18018     18017     18018     18019     18020     18019     18021
     18020     18021     18022     18023     18022     18024     18023     18024
     18025     18026     18025     18027     18026     18027     18028     18029
     18028     18030     18029     18030     18031     18032     18031     18033
     18032     18033     18034     18035     18034     18036     18035     18036
     18037     18038     18037     18039     18038     18039     18040     18041
     18040     18042     18041     18042     18043     18044     18043     18045
     18044     18045     18046     18047     18046     18048     18047     18048
     18049     18050     18049     18051     18050     18051     18052     18053
     18052     18054     18053     18054     18055     18056     18055     18057
     18056     18057     18058     18059     18058     18060     18059     18060
     18061     18062     18061     18063     18062     18063     18064     18065
     18064     18066     18065     18066     18067     18068     18067     18069
     18068     18069     18070     18071     18070     18072     18071     18072
     18073     18074     18073     18075     18074     18075     18076     18077
     18076     18078     18077     18078     18079     18080     18079     18081
     18080     18081     18082     18083     18082     18084     18083     18084
     18085     18086     18085     18087     18086     18087     18088     18089
     18088     18090     18089     18090     18091     18092     18091     18093
     18092     18093     18094     18095     18094     18096     18095     18096
     18097     18098     18097     18099     18098     18099     18100     18101
     18100     18102     18101     18102     18103     18104     18103     18105
     18104     18105     18106     18107     18106     18108     18107     18108
     18109     18110     18109     18111     18110     18111     18112     18113
     18112     18114     18113     18114     18115     18116     18115     18117
     18116     18117     18118     18119     18118     18120     18119     18120
     18121     18122     18121     18123     18122     18123     18124     18125
     18124     18126     18125     18126     18127     18128     18127     18129
     18128     18129     18130     18131     18130     18132     18131     18132
     18133     18134     18133     18135     18134     18135     18136     18137
     18136     18138     18137     18138     18139     18140     18139     18141
     18140     18141     18142     18143     18142     18144     18143     18144
     18145     18146     18145     18147     18146     18147     18148     18149
     18148     18150     18149     18150     18151     18152     18151     18153
     18152     18153     18154     18155     18154     18156     18155     18156
     18157     18158     18157     18159     18158     18159     18160     18161
     18160     18162     18161     18162     18163     18164     18163     18165
     18164     18165     18166     18167     18166     18168     18167     18168
     18169     18170     18169     18171     18170     18171     18172     18173
     18172     18174     18173     18174     18175     18176     18175     18177
     18176     18177     18178     18179     18178     18180     18179     18180
     18181     18182     18181     18183     18182     18183     18184     18185
     18184     18186     18185     18186     18187     18188     18187     18189
     18188     18189     18190     18191     18190     18192     18191     18192
     18193     18194     18193     18195     18194     18195     18196     18197
     18196     18198     18197     18198     18199     18200     18199     18201
     18200     18201     18202     18203     18202     18204     18203     18204
     18205     18206     18205     18207     18206     18207     18208     18209
     18208     18210     18209     18210     18211     18212     18211     18213
     18212     18213     18214     18215     18214     18216     18215     18216
     18217     18218     18217     18219     18218     18219     18220     18221
     18220     18222     18221     18222     18223     18224     18223     18225
     18224     18225     18226     18227     18226     18228     18227     18228
     18229     18230     18229     18231     18230     18231     18232     18233
     18232     18234     18233     18234     18235     18236     18235     18237
     18236     18237     18238     18239     18238     18240     18239     18240
     18241     18242     18241     18243     18242     18243     18244     18245
     18244     18246     18245     18246     18247     18248     18247     18249
     18248     18249     18250     18251     18250     18252     18251     18252
     18253     18254     18253     18255     18254     18255     18256     18257
     18256     18258     18257     18258     18259     18260     18259     18261
     18260     18261     18262     18263     18262     18264     18263     18264
     18265     18266     18265     18267     18266     18267     18268     18269
     18268     18270     18269     18270     18271     18272     18271     18273
     18272     18273     18274     18275     18274     18276     18275     18276
     18277     18278     18277     18279     18278     18279     18280     18281
     18280     18282     18281     18282     18283     18284     18283     18285
     18284     18285     18286     18287     18286     18288     18287     18288
     18289     18290     18289     18291     18290     18291     18292     18293
     18292     18294     18293     18294     18295     18296     18295     18297
     18296     18297     18298     18299     18298     18300     18299     18300
     18301     18302     18301     18303     18302     18303     18304     18305
     18304     18306     18305     18306     18307     18308     18307     18309
     18308     18309     18310     18311     18310     18312     18311     18312
     18313     18314     18313     18315     18314     18315     18316     18317
     18316     18318     18317     18318     18319     18320     18319     18321
     18320     18321     18322     18323     18322     18324     18323     18324
     18325     18326     18325     18327     18326     18327     18328     18329
     18328     18330     18329     18330     18331     18332     18331     18333
     18332     18333     18334     18335     18334     18336     18335     18336
     18337     18338     18337     18339     18338     18339     18340     18341
     18340     18342     18341     18342     18343     18344     18343     18345
     18344     18345     18346     18347     18346     18348     18347     18348
     18349     18350     18349     18351     18350     18351     18352     18353
     18352     18354     18353     18354     18355     18356     18355     18357
     18356     18357     18358     18359     18358     18360     18359     18360
     18361     18362     18361     18363     18362     18363     18364     18365
     18364     18366     18365     18366     18367     18368     18367     18369
     18368     18369     18370     18371     18370     18372     18371     18372
     18373     18374     18373     18375     18374     18375     18376     18377
     18376     18378     18377     18378     18379     18380     18379     18381
     18380     18381     18382     18383     18382     18384     18383     18384
     18385     18386     18385     18387     18386     18387     18388     18389
     18388     18390     18389     18390     18391     18392     18391     18393
     18392     18393     18394     18395     18394     18396     18395     18396
     18397     18398     18397     18399     18398     18399     18400     18401
     18400     18402     18401     18402     18403     18404     18403     18405
     18404     18405     18406     18407     18406     18408     18407     18408
     18409     18410     18409     18411     18410     18411     18412     18413
     18412     18414     18413     18414     18415     18416     18415     18417
     18416     18417     18418     18419     18418     18420     18419     18420
     18421     18422     18421     18423     18422     18423     18424     18425
     18424     18426     18425     18426     18427     18428     18427     18429
     18428     18429     18430     18431     18430     18432     18431     18432
     18433     18434     18433     18435     18434     18435     18436     18437
     18436     18438     18437     18438     18439     18440     18439     18441
     18440     18441     18442     18443     18442     18444     18443     18444
     18445     18446     18445     18447     18446     18447     18448     18449
     18448     18450     18449     18450     18451     18452     18451     18453
     18452     18453     18454     18455     18454     18456     18455     18456
     18457     18458     18457     18459     18458     18459     18460     18461
     18460     18462     18461     18462     18463     18464     18463     18465
     18464     18465     18466     18467     18466     18468     18467     18468
     18469     18470     18469     18471     18470     18471     18472     18473
     18472     18474     18473     18474     18475     18476     18475     18477
     18476     18477     18478     18479     18478     18480     18479     18480
     18481     18482     18481     18483     18482     18483     18484     18485
     18484     18486     18485     18486     18487     18488     18487     18489
     18488     18489     18490     18491     18490     18492     18491     18492
     18493     18494     18493     18495     18494     18495     18496     18497
     18496     18498     18497     18498     18499     18500     18499     18501
     18500     18501     18502     18503     18502     18504     18503     18504
     18505     18506     18505     18507     18506     18507     18508     18509
     18508     18510     18509     18510     18511     18512     18511     18513
     18512     18513     18514     18515     18514     18516     18515     18516
     18517     18518     18517     18519     18518     18519     18520     18521
     18520     18522     18521     18522     18523     18524     18523     18525
     18524     18525     18526     18527     18526     18528     18527     18528
     18529     18530     18529     18531     18530     18531     18532     18533
     18532     18534     18533     18534     18535     18536     18535     18537
     18536     18537     18538     18539     18538     18540     18539     18540
     18541     18542     18541     18543     18542     18543     18544     18545
     18544     18546     18545     18546     18547     18548     18547     18549
     18548     18549     18550     18551     18550     18552     18551     18552
     18553     18554     18553     18555     18554     18555     18556     18557
     18556     18558     18557     18558     18559     18560     18559     18561
     18560     18561     18562     18563     18562     18564     18563     18564
     18565     18566     18565     18567     18566     18567     18568     18569
     18568     18570     18569     18570     18571     18572     18571     18573
     18572     18573     18574     18575     18574     18576     18575     18576
     18577     18578     18577     18579     18578     18579     18580     18581
     18580     18582     18581     18582     18583     18584     18583     18585
     18584     18585     18586     18587     18586     18588     18587     18588
     18589     18590     18589     18591     18590     18591     18592     18593
     18592     18594     18593     18594     18595     18596     18595     18597
     18596     18597     18598     18599     18598     18600     18599     18600
     18601     18602     18601     18603     18602     18603     18604     18605
     18604     18606     18605     18606     18607     18608     18607     18609
     18608     18609     18610     18611     18610     18612     18611     18612
     18613     18614     18613     18615     18614     18615     18616     18617
     18616     18618     18617     18618     18619     18620     18619     18621
     18620     18621     18622     18623     18622     18624     18623     18624
     18625     18626     18625     18627     18626     18627     18628     18629
     18628     18630     18629     18630     18631     18632     18631     18633
     18632     18633     18634     18635     18634     18636     18635     18636
     18637     18638     18637     18639     18638     18639     18640     18641
     18640     18642     18641     18642     18643     18644     18643     18645
     18644     18645     18646     18647     18646     18648     18647     18648
     18649     18650     18649     18651     18650     18651     18652     18653
     18652     18654     18653     18654     18655     18656     18655     18657
     18656     18657     18658     18659     18658     18660     18659     18660
     18661     18662     18661     18663     18662     18663     18664     18665
     18664     18666     18665     18666     18667     18668     18667     18669
     18668     18669     18670     18671     18670     18672     18671     18672
     18673     18674     18673     18675     18674     18675     18676     18677
     18676     18678     18677     18678     18679     18680     18679     18681
     18680     18681     18682     18683     18682     18684     18683     18684
     18685     18686     18685     18687     18686     18687     18688     18689
     18688     18690     18689     18690     18691     18692     18691     18693
     18692     18693     18694     18695     18694     18696     18695     18696
     18697     18698     18697     18699     18698     18699     18700     18701
     18700     18702     18701     18702     18703     18704     18703     18705
     18704     18705     18706     18707     18706     18708     18707     18708
     18709     18710     18709     18711     18710     18711     18712     18713
     18712     18714     18713     18714     18715     18716     18715     18717
     18716     18717     18718     18719     18718     18720     18719     18720
     18721     18722     18721     18723     18722     18723     18724     18725
     18724     18726     18725     18726     18727     18728     18727     18729
     18728     18729     18730     18731     18730     18732     18731     18732
     18733     18734     18733     18735     18734     18735     18736     18737
     18736     18738     18737     18738     18739     18740     18739     18741
     18740     18741     18742     18743     18742     18744     18743     18744
     18745     18746     18745     18747     18746     18747     18748     18749
     18748     18750     18749     18750     18751     18752     18751     18753
     18752     18753     18754     18755     18754     18756     18755     18756
     18757     18758     18757     18759     18758     18759     18760     18761
     18760     18762     18761     18762     18763     18764     18763     18765
     18764     18765     18766     18767     18766     18768     18767     18768
     18769     18770     18769     18771     18770     18771     18772     18773
     18772     18774     18773     18774     18775     18776     18775     18777
     18776     18777     18778     18779     18778     18780     18779     18780
     18781     18782     18781     18783     18782     18783     18784     18785
     18784     18786     18785     18786     18787     18788     18787     18789
     18788     18789     18790     18791     18790     18792     18791     18792
     18793     18794     18793     18795     18794     18795     18796     18797
     18796     18798     18797     18798     18799     18800     18799     18801
     18800     18801     18802     18803     18802     18804     18803     18804
     18805     18806     18805     18807     18806     18807     18808     18809
     18808     18810     18809     18810     18811     18812     18811     18813
     18812     18813     18814     18815     18814     18816     18815     18816
     18817     18818     18817     18819     18818     18819     18820     18821
     18820     18822     18821     18822     18823     18824     18823     18825
     18824     18825     18826     18827     18826     18828     18827     18828
     18829     18830     18829     18831     18830     18831     18832     18833
     18832     18834     18833     18834     18835     18836     18835     18837
     18836     18837     18838     18839     18838     18840     18839     18840
     18841     18842     18841     18843     18842     18843     18844     18845
     18844     18846     18845     18846     18847     18848     18847     18849
     18848     18849     18850     18851     18850     18852     18851     18852
     18853     18854     18853     18855     18854     18855     18856     18857
     18856     18858     18857     18858     18859     18860     18859     18861
     18860     18861     18862     18863     18862     18864     18863     18864
     18865     18866     18865     18867     18866     18867     18868     18869
     18868     18870     18869     18870     18871     18872     18871     18873
     18872     18873     18874     18875     18874     18876     18875     18876
     18877     18878     18877     18879     18878     18879     18880     18881
     18880     18882     18881     18882     18883     18884     18883     18885
     18884     18885     18886     18887     18886     18888     18887     18888
     18889     18890     18889     18891     18890     18891     18892     18893
     18892     18894     18893     18894     18895     18896     18895     18897
     18896     18897     18898     18899     18898     18900     18899     18900
     18901     18902     18901     18903     18902     18903     18904     18905
     18904     18906     18905     18906     18907     18908     18907     18909
     18908     18909     18910     18911     18910     18912     18911     18912
     18913     18914     18913     18915     18914     18915     18916     18917
     18916     18918     18917     18918     18919     18920     18919     18921
     18920     18921     18922     18923     18922     18924     18923     18924
     18925     18926     18925     18927     18926     18927     18928     18929
     18928     18930     18929     18930     18931     18932     18931     18933
     18932     18933     18934     18935     18934     18936     18935     18936
     18937     18938     18937     18939     18938     18939     18940     18941
     18940     18942     18941     18942     18943     18944     18943     18945
     18944     18945     18946     18947     18946     18948     18947     18948
     18949     18950     18949     18951     18950     18951     18952     18953
     18952     18954     18953     18954     18955     18956     18955     18957
     18956     18957     18958     18959     18958     18960     18959     18960
     18961     18962     18961     18963     18962     18963     18964     18965
     18964     18966     18965     18966     18967     18968     18967     18969
     18968     18969     18970     18971     18970     18972     18971     18972
     18973     18974     18973     18975     18974     18975     18976     18977
     18976     18978     18977     18978     18979     18980     18979     18981
     18980     18981     18982     18983     18982     18984     18983     18984
     18985     18986     18985     18987     18986     18987     18988     18989
     18988     18990     18989     18990     18991     18992     18991     18993
     18992     18993     18994     18995     18994     18996     18995     18996
     18997     18998     18997     18999     18998     18999     19000     19001
     19000     19002     19001     19002     19003     19004     19003     19005
     19004     19005     19006     19007     19006     19008     19007     19008
     19009     19010     19009     19011     19010     19011     19012     19013
     19012     19014     19013     19014     19015     19016     19015     19017
     19016     19017     19018     19019     19018     19020     19019     19020
     19021     19022     19021     19023     19022     19023     19024     19025
     19024     19026     19025     19026     19027     19028     19027     19029
     19028     19029     19030     19031     19030     19032     19031     19032
     19033     19034     19033     19035     19034     19035     19036     19037
     19036     19038     19037     19038     19039     19040     19039     19041
     19040     19041     19042     19043     19042     19044     19043     19044
     19045     19046     19045     19047     19046     19047     19048     19049
     19048     19050     19049     19050     19051     19052     19051     19053
     19052     19053     19054     19055     19054     19056     19055     19056
     19057     19058     19057     19059     19058     19059     19060     19061
     19060     19062     19061     19062     19063     19064     19063     19065
     19064     19065     19066     19067     19066     19068     19067     19068
     19069     19070     19069     19071     19070     19071     19072     19073
     19072     19074     19073     19074     19075     19076     19075     19077
     19076     19077     19078     19079     19078     19080     19079     19080
     19081     19082     19081     19083     19082     19083     19084     19085
     19084     19086     19085     19086     19087     19088     19087     19089
     19088     19089     19090     19091     19090     19092     19091     19092
     19093     19094     19093     19095     19094     19095     19096     19097
     19096     19098     19097     19098     19099     19100     19099     19101
     19100     19101     19102     19103     19102     19104     19103     19104
     19105     19106     19105     19107     19106     19107     19108     19109
     19108     19110     19109     19110     19111     19112     19111     19113
     19112     19113     19114     19115     19114     19116     19115     19116
     19117     19118     19117     19119     19118     19119     19120     19121
     19120     19122     19121     19122     19123     19124     19123     19125
     19124     19125     19126     19127     19126     19128     19127     19128
     19129     19130     19129     19131     19130     19131     19132     19133
     19132     19134     19133     19134     19135     19136     19135     19137
     19136     19137     19138     19139     19138     19140     19139     19140
     19141     19142     19141     19143     19142     19143     19144     19145
     19144     19146     19145     19146     19147     19148     19147     19149
     19148     19149     19150     19151     19150     19152     19151     19152
     19153     19154     19153     19155     19154     19155     19156     19157
     19156     19158     19157     19158     19159     19160     19159     19161
     19160     19161     19162     19163     19162     19164     19163     19164
     19165     19166     19165     19167     19166     19167     19168     19169
     19168     19170     19169     19170     19171     19172     19171     19173
     19172     19173     19174     19175     19174     19176     19175     19176
     19177     19178     19177     19179     19178     19179     19180     19181
     19180     19182     19181     19182     19183     19184     19183     19185
     19184     19185     19186     19187     19186     19188     19187     19188
     19189     19190     19189     19191     19190     19191     19192     19193
     19192     19194     19193     19194     19195     19196     19195     19197
     19196     19197     19198     19199     19198     19200     19199     19200
     19201     19202     19201     19203     19202     19203     19204     19205
     19204     19206     19205     19206     19207     19208     19207     19209
     19208     19209     19210     19211     19210     19212     19211     19212
     19213     19214     19213     19215     19214     19215     19216     19217
     19216     19218     19217     19218     19219     19220     19219     19221
     19220     19221     19222     19223     19222     19224     19223     19224
     19225     19226     19225     19227     19226     19227     19228     19229
     19228     19230     19229     19230     19231     19232     19231     19233
     19232     19233     19234     19235     19234     19236     19235     19236
     19237     19238     19237     19239     19238     19239     19240     19241
     19240     19242     19241     19242     19243     19244     19243     19245
     19244     19245     19246     19247     19246     19248     19247     19248
     19249     19250     19249     19251     19250     19251     19252     19253
     19252     19254     19253     19254     19255     19256     19255     19257
     19256     19257     19258     19259     19258     19260     19259     19260
     19261     19262     19261     19263     19262     19263     19264     19265
     19264     19266     19265     19266     19267     19268     19267     19269
     19268     19269     19270     19271     19270     19272     19271     19272
     19273     19274     19273     19275     19274     19275     19276     19277
     19276     19278     19277     19278     19279     19280     19279     19281
     19280     19281     19282     19283     19282     19284     19283     19284
     19285     19286     19285     19287     19286     19287     19288     19289
     19288     19290     19289     19290     19291     19292     19291     19293
     19292     19293     19294     19295     19294     19296     19295     19296
     19297     19298     19297     19299     19298     19299     19300     19301
     19300     19302     19301     19302     19303     19304     19303     19305
     19304     19305     19306     19307     19306     19308     19307     19308
     19309     19310     19309     19311     19310     19311     19312     19313
     19312     19314     19313     19314     19315     19316     19315     19317
     19316     19317     19318     19319     19318     19320     19319     19320
     19321     19322     19321     19323     19322     19323     19324     19325
     19324     19326     19325     19326     19327     19328     19327     19329
     19328     19329     19330     19331     19330     19332     19331     19332
     19333     19334     19333     19335     19334     19335     19336     19337
     19336     19338     19337     19338     19339     19340     19339     19341
     19340     19341     19342     19343     19342     19344     19343     19344
     19345     19346     19345     19347     19346     19347     19348     19349
     19348     19350     19349     19350     19351     19352     19351     19353
     19352     19353     19354     19355     19354     19356     19355     19356
     19357     19358     19357     19359     19358     19359     19360     19361
     19360     19362     19361     19362     19363     19364     19363     19365
     19364     19365     19366     19367     19366     19368     19367     19368
     19369     19370     19369     19371     19370     19371     19372     19373
     19372     19374     19373     19374     19375     19376     19375     19377
     19376     19377     19378     19379     19378     19380     19379     19380
     19381     19382     19381     19383     19382     19383     19384     19385
     19384     19386     19385     19386     19387     19388     19387     19389
     19388     19389     19390     19391     19390     19392     19391     19392
     19393     19394     19393     19395     19394     19395     19396     19397
     19396     19398     19397     19398     19399     19400     19399     19401
     19400     19401     19402     19403     19402     19404     19403     19404
     19405     19406     19405     19407     19406     19407     19408     19409
     19408     19410     19409     19410     19411     19412     19411     19413
     19412     19413     19414     19415     19414     19416     19415     19416
     19417     19418     19417     19419     19418     19419     19420     19421
     19420     19422     19421     19422     19423     19424     19423     19425
     19424     19425     19426     19427     19426     19428     19427     19428
     19429     19430     19429     19431     19430     19431     19432     19433
     19432     19434     19433     19434     19435     19436     19435     19437
     19436     19437     19438     19439     19438     19440     19439     19440
     19441     19442     19441     19443     19442     19443     19444     19445
     19444     19446     19445     19446     19447     19448     19447     19449
     19448     19449     19450     19451     19450     19452     19451     19452
     19453     19454     19453     19455     19454     19455     19456     19457
     19456     19458     19457     19458     19459     19460     19459     19461
     19460     19461     19462     19463     19462     19464     19463     19464
     19465     19466     19465     19467     19466     19467     19468     19469
     19468     19470     19469     19470     19471     19472     19471     19473
     19472     19473     19474     19475     19474     19476     19475     19476
     19477     19478     19477     19479     19478     19479     19480     19481
     19480     19482     19481     19482     19483     19484     19483     19485
     19484     19485     19486     19487     19486     19488     19487     19488
     19489     19490     19489     19491     19490     19491     19492     19493
     19492     19494     19493     19494     19495     19496     19495     19497
     19496     19497     19498     19499     19498     19500     19499     19500
     19501     19502     19501     19503     19502     19503     19504     19505
     19504     19506     19505     19506     19507     19508     19507     19509
     19508     19509     19510     19511     19510     19512     19511     19512
     19513     19514     19513     19515     19514     19515     19516     19517
     19516     19518     19517     19518     19519     19520     19519     19521
     19520     19521     19522     19523     19522     19524     19523     19524
     19525     19526     19525     19527     19526     19527     19528     19529
     19528     19530     19529     19530     19531     19532     19531     19533
     19532     19533     19534     19535     19534     19536     19535     19536
     19537     19538     19537     19539     19538     19539     19540     19541
     19540     19542     19541     19542     19543     19544     19543     19545
     19544     19545     19546     19547     19546     19548     19547     19548
     19549     19550     19549     19551     19550     19551     19552     19553
     19552     19554     19553     19554     19555     19556     19555     19557
     19556     19557     19558     19559     19558     19560     19559     19560
     19561     19562     19561     19563     19562     19563     19564     19565
     19564     19566     19565     19566     19567     19568     19567     19569
     19568     19569     19570     19571     19570     19572     19571     19572
     19573     19574     19573     19575     19574     19575     19576     19577
     19576     19578     19577     19578     19579     19580     19579     19581
     19580     19581     19582     19583     19582     19584     19583     19584
     19585     19586     19585     19587     19586     19587     19588     19589
     19588     19590     19589     19590     19591     19592     19591     19593
     19592     19593     19594     19595     19594     19596     19595     19596
     19597     19598     19597     19599     19598     19599     19600     19601
     19600     19602     19601     19602     19603     19604     19603     19605
     19604     19605     19606     19607     19606     19608     19607     19608
     19609     19610     19609     19611     19610     19611     19612     19613
     19612     19614     19613     19614     19615     19616     19615     19617
     19616     19617     19618     19619     19618     19620     19619     19620
     19621     19622     19621     19623     19622     19623     19624     19625
     19624     19626     19625     19626     19627     19628     19627     19629
     19628     19629     19630     19631     19630     19632     19631     19632
     19633     19634     19633     19635     19634     19635     19636     19637
     19636     19638     19637     19638     19639     19640     19639     19641
     19640     19641     19642     19643     19642     19644     19643     19644
     19645     19646     19645     19647     19646     19647     19648     19649
     19648     19650     19649     19650     19651     19652     19651     19653
     19652     19653     19654     19655     19654     19656     19655     19656
     19657     19658     19657     19659     19658     19659     19660     19661
     19660     19662     19661     19662     19663     19664     19663     19665
     19664     19665     19666     19667     19666     19668     19667     19668
     19669     19670     19669     19671     19670     19671     19672     19673
     19672     19674     19673     19674     19675     19676     19675     19677
     19676     19677     19678     19679     19678     19680     19679     19680
     19681     19682     19681     19683     19682     19683     19684     19685
     19684     19686     19685     19686     19687     19688     19687     19689
     19688     19689     19690     19691     19690     19692     19691     19692
     19693     19694     19693     19695     19694     19695     19696     19697
     19696     19698     19697     19698     19699     19700     19699     19701
     19700     19701     19702     19703     19702     19704     19703     19704
     19705     19706     19705     19707     19706     19707     19708     19709
     19708     19710     19709     19710     19711     19712     19711     19713
     19712     19713     19714     19715     19714     19716     19715     19716
     19717     19718     19717     19719     19718     19719     19720     19721
     19720     19722     19721     19722     19723     19724     19723     19725
     19724     19725     19726     19727     19726     19728     19727     19728
     19729     19730     19729     19731     19730     19731     19732     19733
     19732     19734     19733     19734     19735     19736     19735     19737
     19736     19737     19738     19739     19738     19740     19739     19740
     19741     19742     19741     19743     19742     19743     19744     19745
     19744     19746     19745     19746     19747     19748     19747     19749
     19748     19749     19750     19751     19750     19752     19751     19752
     19753     19754     19753     19755     19754     19755     19756     19757
     19756     19758     19757     19758     19759     19760     19759     19761
     19760     19761     19762     19763     19762     19764     19763     19764
     19765     19766     19765     19767     19766     19767     19768     19769
     19768     19770     19769     19770     19771     19772     19771     19773
     19772     19773     19774     19775     19774     19776     19775     19776
     19777     19778     19777     19779     19778     19779     19780     19781
     19780     19782     19781     19782     19783     19784     19783     19785
     19784     19785     19786     19787     19786     19788     19787     19788
     19789     19790     19789     19791     19790     19791     19792     19793
     19792     19794     19793     19794     19795     19796     19795     19797
     19796     19797     19798     19799     19798     19800     19799     19800
     19801     19802     19801     19803     19802     19803     19804     19805
     19804     19806     19805     19806     19807     19808     19807     19809
     19808     19809     19810     19811     19810     19812     19811     19812
     19813     19814     19813     19815     19814     19815     19816     19817
     19816     19818     19817     19818     19819     19820     19819     19821
     19820     19821     19822     19823     19822     19824     19823     19824
     19825     19826     19825     19827     19826     19827     19828     19829
     19828     19830     19829     19830     19831     19832     19831     19833
     19832     19833     19834     19835     19834     19836     19835     19836
     19837     19838     19837     19839     19838     19839     19840     19841
     19840     19842     19841     19842     19843     19844     19843     19845
     19844     19845     19846     19847     19846     19848     19847     19848
     19849     19850     19849     19851     19850     19851     19852     19853
     19852     19854     19853     19854     19855     19856     19855     19857
     19856     19857     19858     19859     19858     19860     19859     19860
     19861     19862     19861     19863     19862     19863     19864     19865
     19864     19866     19865     19866     19867     19868     19867     19869
     19868     19869     19870     19871     19870     19872     19871     19872
     19873     19874     19873     19875     19874     19875     19876     19877
     19876     19878     19877     19878     19879     19880     19879     19881
     19880     19881     19882     19883     19882     19884     19883     19884
     19885     19886     19885     19887     19886     19887     19888     19889
     19888     19890     19889     19890     19891     19892     19891     19893
     19892     19893     19894     19895     19894     19896     19895     19896
     19897     19898     19897     19899     19898     19899     19900     19901
     19900     19902     19901     19902     19903     19904     19903     19905
     19904     19905     19906     19907     19906     19908     19907     19908
     19909     19910     19909     19911     19910     19911     19912     19913
     19912     19914     19913     19914     19915     19916     19915     19917
     19916     19917     19918     19919     19918     19920     19919     19920
     19921     19922     19921     19923     19922     19923     19924     19925
     19924     19926     19925     19926     19927     19928     19927     19929
     19928     19929     19930     19931     19930     19932     19931     19932
     19933     19934     19933     19935     19934     19935     19936     19937
     19936     19938     19937     19938     19939     19940     19939     19941
     19940     19941     19942     19943     19942     19944     19943     19944
     19945     19946     19945     19947     19946     19947     19948     19949
     19948     19950     19949     19950     19951     19952     19951     19953
     19952     19953     19954     19955     19954     19956     19955     19956
     19957     19958     19957     19959     19958     19959     19960     19961
     19960     19962     19961     19962     19963     19964     19963     19965
     19964     19965     19966     19967     19966     19968     19967     19968
     19969     19970     19969     19971     19970     19971     19972     19973
     19972     19974     19973     19974     19975     19976     19975     19977
     19976     19977     19978     19979     19978     19980     19979     19980
     19981     19982     19981     19983     19982     19983     19984     19985
     19984     19986     19985     19986     19987     19988     19987     19989
     19988     19989     19990     19991     19990     19992     19991     19992
     19993     19994     19993     19995     19994     19995     19996     19997
     19996     19998     19997     19998     19999     20000     19999     20001
     20000     20001     20002     20003     20002     20004     20003     20004
     20005     20006     20005     20007     20006     20007     20008     20009
     20008     20010     20009     20010     20011     20012     20011     20013
     20012     20013     20014     20015     20014     20016     20015     20016
     20017     20018     20017     20019     20018     20019     20020     20021
     20020     20022     20021     20022     20023     20024     20023     20025
     20024     20025     20026     20027     20026     20028     20027     20028
     20029     20030     20029     20031     20030     20031     20032     20033
     20032     20034     20033     20034     20035     20036     20035     20037
     20036     20037     20038     20039     20038     20040     20039     20040
     20041     20042     20041     20043     20042     20043     20044     20045
     20044     20046     20045     20046     20047     20048     20047     20049
     20048     20049     20050     20051     20050     20052     20051     20052
     20053     20054     20053     20055     20054     20055     20056     20057
     20056     20058     20057     20058     20059     20060     20059     20061
     20060     20061     20062     20063     20062     20064     20063     20064
     20065     20066     20065     20067     20066     20067     20068     20069
     20068     20070     20069     20070     20071     20072     20071     20073
     20072     20073     20074     20075     20074     20076     20075     20076
     20077     20078     20077     20079     20078     20079     20080     20081
     20080     20082     20081     20082     20083     20084     20083     20085
     20084     20085     20086     20087     20086     20088     20087     20088
     20089     20090     20089     20091     20090     20091     20092     20093
     20092     20094     20093     20094     20095     20096     20095     20097
     20096     20097     20098     20099     20098     20100     20099     20100
     20101     20102     20101     20103     20102     20103     20104     20105
     20104     20106     20105     20106     20107     20108     20107     20109
     20108     20109     20110     20111     20110     20112     20111     20112
     20113     20114     20113     20115     20114     20115     20116     20117
     20116     20118     20117     20118     20119     20120     20119     20121
     20120     20121     20122     20123     20122     20124     20123     20124
     20125     20126     20125     20127     20126     20127     20128     20129
     20128     20130     20129     20130     20131     20132     20131     20133
     20132     20133     20134     20135     20134     20136     20135     20136
     20137     20138     20137     20139     20138     20139     20140     20141
     20140     20142     20141     20142     20143     20144     20143     20145
     20144     20145     20146     20147     20146     20148     20147     20148
     20149     20150     20149     20151     20150     20151     20152     20153
     20152     20154     20153     20154     20155     20156     20155     20157
     20156     20157     20158     20159     20158     20160     20159     20160
     20161     20162     20161     20163     20162     20163     20164     20165
     20164     20166     20165     20166     20167     20168     20167     20169
     20168     20169     20170     20171     20170     20172     20171     20172
     20173     20174     20173     20175     20174     20175     20176     20177
     20176     20178     20177     20178     20179     20180     20179     20181
     20180     20181     20182     20183     20182     20184     20183     20184
     20185     20186     20185     20187     20186     20187     20188     20189
     20188     20190     20189     20190     20191     20192     20191     20193
     20192     20193     20194     20195     20194     20196     20195     20196
     20197     20198     20197     20199     20198     20199     20200     20201
     20200     20202     20201     20202     20203     20204     20203     20205
     20204     20205     20206     20207     20206     20208     20207     20208
     20209     20210     20209     20211     20210     20211     20212     20213
     20212     20214     20213     20214     20215     20216     20215     20217
     20216     20217     20218     20219     20218     20220     20219     20220
     20221     20222     20221     20223     20222     20223     20224     20225
     20224     20226     20225     20226     20227     20228     20227     20229
     20228     20229     20230     20231     20230     20232     20231     20232
     20233     20234     20233     20235     20234     20235     20236     20237
     20236     20238     20237     20238     20239     20240     20239     20241
     20240     20241     20242     20243     20242     20244     20243     20244
     20245     20246     20245     20247     20246     20247     20248     20249
     20248     20250     20249     20250     20251     20252     20251     20253
     20252     20253     20254     20255     20254     20256     20255     20256
     20257     20258     20257     20259     20258     20259     20260     20261
     20260     20262     20261     20262     20263     20264     20263     20265
     20264     20265     20266     20267     20266     20268     20267     20268
     20269     20270     20269     20271     20270     20271     20272     20273
     20272     20274     20273     20274     20275     20276     20275     20277
     20276     20277     20278     20279     20278     20280     20279     20280
     20281     20282     20281     20283     20282     20283     20284     20285
     20284     20286     20285     20286     20287     20288     20287     20289
     20288     20289     20290     20291     20290     20292     20291     20292
     20293     20294     20293     20295     20294     20295     20296     20297
     20296     20298     20297     20298     20299     20300     20299     20301
     20300     20301     20302     20303     20302     20304     20303     20304
     20305     20306     20305     20307     20306     20307     20308     20309
     20308     20310     20309     20310     20311     20312     20311     20313
     20312     20313     20314     20315     20314     20316     20315     20316
     20317     20318     20317     20319     20318     20319     20320     20321
     20320     20322     20321     20322     20323     20324     20323     20325
     20324     20325     20326     20327     20326     20328     20327     20328
     20329     20330     20329     20331     20330     20331     20332     20333
     20332     20334     20333     20334     20335     20336     20335     20337
     20336     20337     20338     20339     20338     20340     20339     20340
     20341     20342     20341     20343     20342     20343     20344     20345
     20344     20346     20345     20346     20347     20348     20347     20349
     20348     20349     20350     20351     20350     20352     20351     20352
     20353     20354     20353     20355     20354     20355     20356     20357
     20356     20358     20357     20358     20359     20360     20359     20361
     20360     20361     20362     20363     20362     20364     20363     20364
     20365     20366     20365     20367     20366     20367     20368     20369
     20368     20370     20369     20370     20371     20372     20371     20373
     20372     20373     20374     20375     20374     20376     20375     20376
     20377     20378     20377     20379     20378     20379     20380     20381
     20380     20382     20381     20382     20383     20384     20383     20385
     20384     20385     20386     20387     20386     20388     20387     20388
     20389     20390     20389     20391     20390     20391     20392     20393
     20392     20394     20393     20394     20395     20396     20395     20397
     20396     20397     20398     20399     20398     20400     20399     20400
     20401     20402     20401     20403     20402     20403     20404     20405
     20404     20406     20405     20406     20407     20408     20407     20409
     20408     20409     20410     20411     20410     20412     20411     20412
     20413     20414     20413     20415     20414     20415     20416     20417
     20416     20418     20417     20418     20419     20420     20419     20421
     20420     20421     20422     20423     20422     20424     20423     20424
     20425     20426     20425     20427     20426     20427     20428     20429
     20428     20430     20429     20430     20431     20432     20431     20433
     20432     20433     20434     20435     20434     20436     20435     20436
     20437     20438     20437     20439     20438     20439     20440     20441
     20440     20442     20441     20442     20443     20444     20443     20445
     20444     20445     20446     20447     20446     20448     20447     20448
     20449     20450     20449     20451     20450     20451     20452     20453
     20452     20454     20453     20454     20455     20456     20455     20457
     20456     20457     20458     20459     20458     20460     20459     20460
     20461     20462     20461     20463     20462     20463     20464     20465
     20464     20466     20465     20466     20467     20468     20467     20469
     20468     20469     20470     20471     20470     20472     20471     20472
     20473     20474     20473     20475     20474     20475     20476     20477
     20476     20478     20477     20478     20479     20480     20479     20481
     20480     20481     20482     20483     20482     20484     20483     20484
     20485     20486     20485     20487     20486     20487     20488     20489
     20488     20490     20489     20490     20491     20492     20491     20493
     20492     20493     20494     20495     20494     20496     20495     20496
     20497     20498     20497     20499     20498     20499     20500     20501
     20500     20502     20501     20502     20503     20504     20503     20505
     20504     20505     20506     20507     20506     20508     20507     20508
     20509     20510     20509     20511     20510     20511     20512     20513
     20512     20514     20513     20514     20515     20516     20515     20517
     20516     20517     20518     20519     20518     20520     20519     20520
     20521     20522     20521     20523     20522     20523     20524     20525
     20524     20526     20525     20526     20527     20528     20527     20529
     20528     20529     20530     20531     20530     20532     20531     20532
     20533     20534     20533     20535     20534     20535     20536     20537
     20536     20538     20537     20538     20539     20540     20539     20541
     20540     20541     20542     20543     20542     20544     20543     20544
     20545     20546     20545     20547     20546     20547     20548     20549
     20548     20550     20549     20550     20551     20552     20551     20553
     20552     20553     20554     20555     20554     20556     20555     20556
     20557     20558     20557     20559     20558     20559     20560     20561
     20560     20562     20561     20562     20563     20564     20563     20565
     20564     20565     20566     20567     20566     20568     20567     20568
     20569     20570     20569     20571     20570     20571     20572     20573
     20572     20574     20573     20574     20575     20576     20575     20577
     20576     20577     20578     20579     20578     20580     20579     20580
     20581     20582     20581     20583     20582     20583     20584     20585
     20584     20586     20585     20586     20587     20588     20587     20589
     20588     20589     20590     20591     20590     20592     20591     20592
     20593     20594     20593     20595     20594     20595     20596     20597
     20596     20598     20597     20598     20599     20600     20599     20601
     20600     20601     20602     20603     20602     20604     20603     20604
     20605     20606     20605     20607     20606     20607     20608     20609
     20608     20610     20609     20610     20611     20612     20611     20613
     20612     20613     20614     20615     20614     20616     20615     20616
     20617     20618     20617     20619     20618     20619     20620     20621
     20620     20622     20621     20622     20623     20624     20623     20625
     20624     20625     20626     20627     20626     20628     20627     20628
     20629     20630     20629     20631     20630     20631     20632     20633
     20632     20634     20633     20634     20635     20636     20635     20637
     20636     20637     20638     20639     20638     20640     20639     20640
     20641     20642     20641     20643     20642     20643     20644     20645
     20644     20646     20645     20646     20647     20648     20647     20649
     20648     20649     20650     20651     20650     20652     20651     20652
     20653     20654     20653     20655     20654     20655     20656     20657
     20656     20658     20657     20658     20659     20660     20659     20661
     20660     20661     20662     20663     20662     20664     20663     20664
     20665     20666     20665     20667     20666     20667     20668     20669
     20668     20670     20669     20670     20671     20672     20671     20673
     20672     20673     20674     20675     20674     20676     20675     20676
     20677     20678     20677     20679     20678     20679     20680     20681
     20680     20682     20681     20682     20683     20684     20683     20685
     20684     20685     20686     20687     20686     20688     20687     20688
     20689     20690     20689     20691     20690     20691     20692     20693
     20692     20694     20693     20694     20695     20696     20695     20697
     20696     20697     20698     20699     20698     20700     20699     20700
     20701     20702     20701     20703     20702     20703     20704     20705
     20704     20706     20705     20706     20707     20708     20707     20709
     20708     20709     20710     20711     20710     20712     20711     20712
     20713     20714     20713     20715     20714     20715     20716     20717
     20716     20718     20717     20718     20719     20720     20719     20721
     20720     20721     20722     20723     20722     20724     20723     20724
     20725     20726     20725     20727     20726     20727     20728     20729
     20728     20730     20729     20730     20731     20732     20731     20733
     20732     20733     20734     20735     20734     20736     20735     20736
     20737     20738     20737     20739     20738     20739     20740     20741
     20740     20742     20741     20742     20743     20744     20743     20745
     20744     20745     20746     20747     20746     20748     20747     20748
     20749     20750     20749     20751     20750     20751     20752     20753
     20752     20754     20753     20754     20755     20756     20755     20757
     20756     20757     20758     20759     20758     20760     20759     20760
     20761     20762     20761     20763     20762     20763     20764     20765
     20764     20766     20765     20766     20767     20768     20767     20769
     20768     20769     20770     20771     20770     20772     20771     20772
     20773     20774     20773     20775     20774     20775     20776     20777
     20776     20778     20777     20778     20779     20780     20779     20781
     20780     20781     20782     20783     20782     20784     20783     20784
     20785     20786     20785     20787     20786     20787     20788     20789
     20788     20790     20789     20790     20791     20792     20791     20793
     20792     20793     20794     20795     20794     20796     20795     20796
     20797     20798     20797     20799     20798     20799     20800     20801
     20800     20802     20801     20802     20803     20804     20803     20805
     20804     20805     20806     20807     20806     20808     20807     20808
     20809     20810     20809     20811     20810     20811     20812     20813
     20812     20814     20813     20814     20815     20816     20815     20817
     20816     20817     20818     20819     20818     20820     20819     20820
     20821     20822     20821     20823     20822     20823     20824     20825
     20824     20826     20825     20826     20827     20828     20827     20829
     20828     20829     20830     20831     20830     20832     20831     20832
     20833     20834     20833     20835     20834     20835     20836     20837
     20836     20838     20837     20838     20839     20840     20839     20841
     20840     20841     20842     20843     20842     20844     20843     20844
     20845     20846     20845     20847     20846     20847     20848     20849
     20848     20850     20849     20850     20851     20852     20851     20853
     20852     20853     20854     20855     20854     20856     20855     20856
     20857     20858     20857     20859     20858     20859     20860     20861
     20860     20862     20861     20862     20863     20864     20863     20865
     20864     20865     20866     20867     20866     20868     20867     20868
     20869     20870     20869     20871     20870     20871     20872     20873
     20872     20874     20873     20874     20875     20876     20875     20877
     20876     20877     20878     20879     20878     20880     20879     20880
     20881     20882     20881     20883     20882     20883     20884     20885
     20884     20886     20885     20886     20887     20888     20887     20889
     20888     20889     20890     20891     20890     20892     20891     20892
     20893     20894     20893     20895     20894     20895     20896     20897
     20896     20898     20897     20898     20899     20900     20899     20901
     20900     20901     20902     20903     20902     20904     20903     20904
     20905     20906     20905     20907     20906     20907     20908     20909
     20908     20910     20909     20910     20911     20912     20911     20913
     20912     20913     20914     20915     20914     20916     20915     20916
     20917     20918     20917     20919     20918     20919     20920     20921
     20920     20922     20921     20922     20923     20924     20923     20925
     20924     20925     20926     20927     20926     20928     20927     20928
     20929     20930     20929     20931     20930     20931     20932     20933
     20932     20934     20933     20934     20935     20936     20935     20937
     20936     20937     20938     20939     20938     20940     20939     20940
     20941     20942     20941     20943     20942     20943     20944     20945
     20944     20946     20945     20946     20947     20948     20947     20949
     20948     20949     20950     20951     20950     20952     20951     20952
     20953     20954     20953     20955     20954     20955     20956     20957
     20956     20958     20957     20958     20959     20960     20959     20961
     20960     20961     20962     20963     20962     20964     20963     20964
     20965     20966     20965     20967     20966     20967     20968     20969
     20968     20970     20969     20970     20971     20972     20971     20973
     20972     20973     20974     20975     20974     20976     20975     20976
     20977     20978     20977     20979     20978     20979     20980     20981
     20980     20982     20981     20982     20983     20984     20983     20985
     20984     20985     20986     20987     20986     20988     20987     20988
     20989     20990     20989     20991     20990     20991     20992     20993
     20992     20994     20993     20994     20995     20996     20995     20997
     20996     20997     20998     20999     20998     21000     20999     21000
     21001     21002     21001     21003     21002     21003     21004     21005
     21004     21006     21005     21006     21007     21008     21007     21009
     21008     21009     21010     21011     21010     21012     21011     21012
     21013     21014     21013     21015     21014     21015     21016     21017
     21016     21018     21017     21018     21019     21020     21019     21021
     21020     21021     21022     21023     21022     21024     21023     21024
     21025     21026     21025     21027     21026     21027     21028     21029
     21028     21030     21029     21030     21031     21032     21031     21033
     21032     21033     21034     21035     21034     21036     21035     21036
     21037     21038     21037     21039     21038     21039     21040     21041
     21040     21042     21041     21042     21043     21044     21043     21045
     21044     21045     21046     21047     21046     21048     21047     21048
     21049     21050     21049     21051     21050     21051     21052     21053
     21052     21054     21053     21054     21055     21056     21055     21057
     21056     21057     21058     21059     21058     21060     21059     21060
     21061     21062     21061     21063     21062     21063     21064     21065
     21064     21066     21065     21066     21067     21068     21067     21069
     21068     21069     21070     21071     21070     21072     21071     21072
     21073     21074     21073     21075     21074     21075     21076     21077
     21076     21078     21077     21078     21079     21080     21079     21081
     21080     21081     21082     21083     21082     21084     21083     21084
     21085     21086     21085     21087     21086     21087     21088     21089
     21088     21090     21089     21090     21091     21092     21091     21093
     21092     21093     21094     21095     21094     21096     21095     21096
     21097     21098     21097     21099     21098     21099     21100     21101
     21100     21102     21101     21102     21103     21104     21103     21105
     21104     21105     21106     21107     21106     21108     21107     21108
     21109     21110     21109     21111     21110     21111     21112     21113
     21112     21114     21113     21114     21115     21116     21115     21117
     21116     21117     21118     21119     21118     21120     21119     21120
     21121     21122     21121     21123     21122     21123     21124     21125
     21124     21126     21125     21126     21127     21128     21127     21129
     21128     21129     21130     21131     21130     21132     21131     21132
     21133     21134     21133     21135     21134     21135     21136     21137
     21136     21138     21137     21138     21139     21140     21139     21141
     21140     21141     21142     21143     21142     21144     21143     21144
     21145     21146     21145     21147     21146     21147     21148     21149
     21148     21150     21149     21150     21151     21152     21151     21153
     21152     21153     21154     21155     21154     21156     21155     21156
     21157     21158     21157     21159     21158     21159     21160     21161
     21160     21162     21161     21162     21163     21164     21163     21165
     21164     21165     21166     21167     21166     21168     21167     21168
     21169     21170     21169     21171     21170     21171     21172     21173
     21172     21174     21173     21174     21175     21176     21175     21177
     21176     21177     21178     21179     21178     21180     21179     21180
     21181     21182     21181     21183     21182     21183     21184     21185
     21184     21186     21185     21186     21187     21188     21187     21189
     21188     21189     21190     21191     21190     21192     21191     21192
     21193     21194     21193     21195     21194     21195     21196     21197
     21196     21198     21197     21198     21199     21200     21199     21201
     21200     21201     21202     21203     21202     21204     21203     21204
     21205     21206     21205     21207     21206     21207     21208     21209
     21208     21210     21209     21210     21211     21212     21211     21213
     21212     21213     21214     21215     21214     21216     21215     21216
     21217     21218     21217     21219     21218     21219     21220     21221
     21220     21222     21221     21222     21223     21224     21223     21225
     21224     21225     21226     21227     21226     21228     21227     21228
     21229     21230     21229     21231     21230     21231     21232     21233
     21232     21234     21233     21234     21235     21236     21235     21237
     21236     21237     21238     21239     21238     21240     21239     21240
     21241     21242     21241     21243     21242     21243     21244     21245
     21244     21246     21245     21246     21247     21248     21247     21249
     21248     21249     21250     21251     21250     21252     21251     21252
     21253     21254     21253     21255     21254     21255     21256     21257
     21256     21258     21257     21258     21259     21260     21259     21261
     21260     21261     21262     21263     21262     21264     21263     21264
     21265     21266     21265     21267     21266     21267     21268     21269
     21268     21270     21269     21270     21271     21272     21271     21273
     21272     21273     21274     21275     21274     21276     21275     21276
     21277     21278     21277     21279     21278     21279     21280     21281
     21280     21282     21281     21282     21283     21284     21283     21285
     21284     21285     21286     21287     21286     21288     21287     21288
     21289     21290     21289     21291     21290     21291     21292     21293
     21292     21294     21293     21294     21295     21296     21295     21297
     21296     21297     21298     21299     21298     21300     21299     21300
     21301     21302     21301     21303     21302     21303     21304     21305
     21304     21306     21305     21306     21307     21308     21307     21309
     21308     21309     21310     21311     21310     21312     21311     21312
     21313     21314     21313     21315     21314     21315     21316     21317
     21316     21318     21317     21318     21319     21320     21319     21321
     21320     21321     21322     21323     21322     21324     21323     21324
     21325     21326     21325     21327     21326     21327     21328     21329
     21328     21330     21329     21330     21331     21332     21331     21333
     21332     21333     21334     21335     21334     21336     21335     21336
     21337     21338     21337     21339     21338     21339     21340     21341
     21340     21342     21341     21342     21343     21344     21343     21345
     21344     21345     21346     21347     21346     21348     21347     21348
     21349     21350     21349     21351     21350     21351     21352     21353
     21352     21354     21353     21354     21355     21356     21355     21357
     21356     21357     21358     21359     21358     21360     21359     21360
     21361     21362     21361     21363     21362     21363     21364     21365
     21364     21366     21365     21366     21367     21368     21367     21369
     21368     21369     21370     21371     21370     21372     21371     21372
     21373     21374     21373     21375     21374     21375     21376     21377
     21376     21378     21377     21378     21379     21380     21379     21381
     21380     21381     21382     21383     21382     21384     21383     21384
     21385     21386     21385     21387     21386     21387     21388     21389
     21388     21390     21389     21390     21391     21392     21391     21393
     21392     21393     21394     21395     21394     21396     21395     21396
     21397     21398     21397     21399     21398     21399     21400     21401
     21400     21402     21401     21402     21403     21404     21403     21405
     21404     21405     21406     21407     21406     21408     21407     21408
     21409     21410     21409     21411     21410     21411     21412     21413
     21412     21414     21413     21414     21415     21416     21415     21417
     21416     21417     21418     21419     21418     21420     21419     21420
     21421     21422     21421     21423     21422     21423     21424     21425
     21424     21426     21425     21426     21427     21428     21427     21429
     21428     21429     21430     21431     21430     21432     21431     21432
     21433     21434     21433     21435     21434     21435     21436     21437
     21436     21438     21437     21438     21439     21440     21439     21441
     21440     21441     21442     21443     21442     21444     21443     21444
     21445     21446     21445     21447     21446     21447     21448     21449
     21448     21450     21449     21450     21451     21452     21451     21453
     21452     21453     21454     21455     21454     21456     21455     21456
     21457     21458     21457     21459     21458     21459     21460     21461
     21460     21462     21461     21462     21463     21464     21463     21465
     21464     21465     21466     21467     21466     21468     21467     21468
     21469     21470     21469     21471     21470     21471     21472     21473
     21472     21474     21473     21474     21475     21476     21475     21477
     21476     21477     21478     21479     21478     21480     21479     21480
     21481     21482     21481     21483     21482     21483     21484     21485
     21484     21486     21485     21486     21487     21488     21487     21489
     21488     21489     21490     21491     21490     21492     21491     21492
     21493     21494     21493     21495     21494     21495     21496     21497
     21496     21498     21497     21498     21499     21500     21499     21501
     21500     21501     21502     21503     21502     21504     21503     21504
     21505     21506     21505     21507     21506     21507     21508     21509
     21508     21510     21509     21510     21511     21512     21511     21513
     21512     21513     21514     21515     21514     21516     21515     21516
     21517     21518     21517     21519     21518     21519     21520     21521
     21520     21522     21521     21522     21523     21524     21523     21525
     21524     21525     21526     21527     21526     21528     21527     21528
     21529     21530     21529     21531     21530     21531     21532     21533
     21532     21534     21533     21534     21535     21536     21535     21537
     21536     21537     21538     21539     21538     21540     21539     21540
     21541     21542     21541     21543     21542     21543     21544     21545
     21544     21546     21545     21546     21547     21548     21547     21549
     21548     21549     21550     21551     21550     21552     21551     21552
     21553     21554     21553     21555     21554     21555     21556     21557
     21556     21558     21557     21558     21559     21560     21559     21561
     21560     21561     21562     21563     21562     21564     21563     21564
     21565     21566     21565     21567     21566     21567     21568     21569
     21568     21570     21569     21570     21571     21572     21571     21573
     21572     21573     21574     21575     21574     21576     21575     21576
     21577     21578     21577     21579     21578     21579     21580     21581
     21580     21582     21581     21582     21583     21584     21583     21585
     21584     21585     21586     21587     21586     21588     21587     21588
     21589     21590     21589     21591     21590     21591     21592     21593
     21592     21594     21593     21594     21595     21596     21595     21597
     21596     21597     21598     21599     21598     21600     21599     21600
     21601     21602     21601     21603     21602     21603     21604     21605
     21604     21606     21605     21606     21607     21608     21607     21609
     21608     21609     21610     21611     21610     21612     21611     21612
     21613     21614     21613     21615     21614     21615     21616     21617
     21616     21618     21617     21618     21619     21620     21619     21621
     21620     21621     21622     21623     21622     21624     21623     21624
     21625     21626     21625     21627     21626     21627     21628     21629
     21628     21630     21629     21630     21631     21632     21631     21633
     21632     21633     21634     21635     21634     21636     21635     21636
     21637     21638     21637     21639     21638     21639     21640     21641
     21640     21642     21641     21642     21643     21644     21643     21645
     21644     21645     21646     21647     21646     21648     21647     21648
     21649     21650     21649     21651     21650     21651     21652     21653
     21652     21654     21653     21654     21655     21656     21655     21657
     21656     21657     21658     21659     21658     21660     21659     21660
     21661     21662     21661     21663     21662     21663     21664     21665
     21664     21666     21665     21666     21667     21668     21667     21669
     21668     21669     21670     21671     21670     21672     21671     21672
     21673     21674     21673     21675     21674     21675     21676     21677
     21676     21678     21677     21678     21679     21680     21679     21681
     21680     21681     21682     21683     21682     21684     21683     21684
     21685     21686     21685     21687     21686     21687     21688     21689
     21688     21690     21689     21690     21691     21692     21691     21693
     21692     21693     21694     21695     21694     21696     21695     21696
     21697     21698     21697     21699     21698     21699     21700     21701
     21700     21702     21701     21702     21703     21704     21703     21705
     21704     21705     21706     21707     21706     21708     21707     21708
     21709     21710     21709     21711     21710     21711     21712     21713
     21712     21714     21713     21714     21715     21716     21715     21717
     21716     21717     21718     21719     21718     21720     21719     21720
     21721     21722     21721     21723     21722     21723     21724     21725
     21724     21726     21725     21726     21727     21728     21727     21729
     21728     21729     21730     21731     21730     21732     21731     21732
     21733     21734     21733     21735     21734     21735     21736     21737
     21736     21738     21737     21738     21739     21740     21739     21741
     21740     21741     21742     21743     21742     21744     21743     21744
     21745     21746     21745     21747     21746     21747     21748     21749
     21748     21750     21749     21750     21751     21752     21751     21753
     21752     21753     21754     21755     21754     21756     21755     21756
     21757     21758     21757     21759     21758     21759     21760     21761
     21760     21762     21761     21762     21763     21764     21763     21765
     21764     21765     21766     21767     21766     21768     21767     21768
     21769     21770     21769     21771     21770     21771     21772     21773
     21772     21774     21773     21774     21775     21776     21775     21777
     21776     21777     21778     21779     21778     21780     21779     21780
     21781     21782     21781     21783     21782     21783     21784     21785
     21784     21786     21785     21786     21787     21788     21787     21789
     21788     21789     21790     21791     21790     21792     21791     21792
     21793     21794     21793     21795     21794     21795     21796     21797
     21796     21798     21797     21798     21799     21800     21799     21801
     21800     21801     21802     21803     21802     21804     21803     21804
     21805     21806     21805     21807     21806     21807     21808     21809
     21808     21810     21809     21810     21811     21812     21811     21813
     21812     21813     21814     21815     21814     21816     21815     21816
     21817     21818     21817     21819     21818     21819     21820     21821
     21820     21822     21821     21822     21823     21824     21823     21825
     21824     21825     21826     21827     21826     21828     21827     21828
     21829     21830     21829     21831     21830     21831     21832     21833
     21832     21834     21833     21834     21835     21836     21835     21837
     21836     21837     21838     21839     21838     21840     21839     21840
     21841     21842     21841     21843     21842     21843     21844     21845
     21844     21846     21845     21846     21847     21848     21847     21849
     21848     21849     21850     21851     21850     21852     21851     21852
     21853     21854     21853     21855     21854     21855     21856     21857
     21856     21858     21857     21858     21859     21860     21859     21861
     21860     21861     21862     21863     21862     21864     21863     21864
     21865     21866     21865     21867     21866     21867     21868     21869
     21868     21870     21869     21870     21871     21872     21871     21873
     21872     21873     21874     21875     21874     21876     21875     21876
     21877     21878     21877     21879     21878     21879     21880     21881
     21880     21882     21881     21882     21883     21884     21883     21885
     21884     21885     21886     21887     21886     21888     21887     21888
     21889     21890     21889     21891     21890     21891     21892     21893
     21892     21894     21893     21894     21895     21896     21895     21897
     21896     21897     21898     21899     21898     21900     21899     21900
     21901     21902     21901     21903     21902     21903     21904     21905
     21904     21906     21905     21906     21907     21908     21907     21909
     21908     21909     21910     21911     21910     21912     21911     21912
     21913     21914     21913     21915     21914     21915     21916     21917
     21916     21918     21917     21918     21919     21920     21919     21921
     21920     21921     21922     21923     21922     21924     21923     21924
     21925     21926     21925     21927     21926     21927     21928     21929
     21928     21930     21929     21930     21931     21932     21931     21933
     21932     21933     21934     21935     21934     21936     21935     21936
     21937     21938     21937     21939     21938     21939     21940     21941
     21940     21942     21941     21942     21943     21944     21943     21945
     21944     21945     21946     21947     21946     21948     21947     21948
     21949     21950     21949     21951     21950     21951     21952     21953
     21952     21954     21953     21954     21955     21956     21955     21957
     21956     21957     21958     21959     21958     21960     21959     21960
     21961     21962     21961     21963     21962     21963     21964     21965
     21964     21966     21965     21966     21967     21968     21967     21969
     21968     21969     21970     21971     21970     21972     21971     21972
     21973     21974     21973     21975     21974     21975     21976     21977
     21976     21978     21977     21978     21979     21980     21979     21981
     21980     21981     21982     21983     21982     21984     21983     21984
     21985     21986     21985     21987     21986     21987     21988     21989
     21988     21990     21989     21990     21991     21992     21991     21993
     21992     21993     21994     21995     21994     21996     21995     21996
     21997     21998     21997     21999     21998     21999     22000     22001
     22000     22002     22001     22002     22003     22004     22003     22005
     22004     22005     22006     22007     22006     22008     22007     22008
     22009     22010     22009     22011     22010     22011     22012     22013
     22012     22014     22013     22014     22015     22016     22015     22017
     22016     22017     22018     22019     22018     22020     22019     22020
     22021     22022     22021     22023     22022     22023     22024     22025
     22024     22026     22025     22026     22027     22028     22027     22029
     22028     22029     22030     22031     22030     22032     22031     22032
     22033     22034     22033     22035     22034     22035     22036     22037
     22036     22038     22037     22038     22039     22040     22039     22041
     22040     22041     22042     22043     22042     22044     22043     22044
     22045     22046     22045     22047     22046     22047     22048     22049
     22048     22050     22049     22050     22051     22052     22051     22053
     22052     22053     22054     22055     22054     22056     22055     22056
     22057     22058     22057     22059     22058     22059     22060     22061
     22060     22062     22061     22062     22063     22064     22063     22065
     22064     22065     22066     22067     22066     22068     22067     22068
     22069     22070     22069     22071     22070     22071     22072     22073
     22072     22074     22073     22074     22075     22076     22075     22077
     22076     22077     22078     22079     22078     22080     22079     22080
     22081     22082     22081     22083     22082     22083     22084     22085
     22084     22086     22085     22086     22087     22088     22087     22089
     22088     22089     22090     22091     22090     22092     22091     22092
     22093     22094     22093     22095     22094     22095     22096     22097
     22096     22098     22097     22098     22099     22100     22099     22101
     22100     22101     22102     22103     22102     22104     22103     22104
     22105     22106     22105     22107     22106     22107     22108     22109
     22108     22110     22109     22110     22111     22112     22111     22113
     22112     22113     22114     22115     22114     22116     22115     22116
     22117     22118     22117     22119     22118     22119     22120     22121
     22120     22122     22121     22122     22123     22124     22123     22125
     22124     22125     22126     22127     22126     22128     22127     22128
     22129     22130     22129     22131     22130     22131     22132     22133
     22132     22134     22133     22134     22135     22136     22135     22137
     22136     22137     22138     22139     22138     22140     22139     22140
     22141     22142     22141     22143     22142     22143     22144     22145
     22144     22146     22145     22146     22147     22148     22147     22149
     22148     22149     22150     22151     22150     22152     22151     22152
     22153     22154     22153     22155     22154     22155     22156     22157
     22156     22158     22157     22158     22159     22160     22159     22161
     22160     22161     22162     22163     22162     22164     22163     22164
     22165     22166     22165     22167     22166     22167     22168     22169
     22168     22170     22169     22170     22171     22172     22171     22173
     22172     22173     22174     22175     22174     22176     22175     22176
     22177     22178     22177     22179     22178     22179     22180     22181
     22180     22182     22181     22182     22183     22184     22183     22185
     22184     22185     22186     22187     22186     22188     22187     22188
     22189     22190     22189     22191     22190     22191     22192     22193
     22192     22194     22193     22194     22195     22196     22195     22197
     22196     22197     22198     22199     22198     22200     22199     22200
     22201     22202     22201     22203     22202     22203     22204     22205
     22204     22206     22205     22206     22207     22208     22207     22209
     22208     22209     22210     22211     22210     22212     22211     22212
     22213     22214     22213     22215     22214     22215     22216     22217
     22216     22218     22217     22218     22219     22220     22219     22221
     22220     22221     22222     22223     22222     22224     22223     22224
     22225     22226     22225     22227     22226     22227     22228     22229
     22228     22230     22229     22230     22231     22232     22231     22233
     22232     22233     22234     22235     22234     22236     22235     22236
     22237     22238     22237     22239     22238     22239     22240     22241
     22240     22242     22241     22242     22243     22244     22243     22245
     22244     22245     22246     22247     22246     22248     22247     22248
     22249     22250     22249     22251     22250     22251     22252     22253
     22252     22254     22253     22254     22255     22256     22255     22257
     22256     22257     22258     22259     22258     22260     22259     22260
     22261     22262     22261     22263     22262     22263     22264     22265
     22264     22266     22265     22266     22267     22268     22267     22269
     22268     22269     22270     22271     22270     22272     22271     22272
     22273     22274     22273     22275     22274     22275     22276     22277
     22276     22278     22277     22278     22279     22280     22279     22281
     22280     22281     22282     22283     22282     22284     22283     22284
     22285     22286     22285     22287     22286     22287     22288     22289
     22288     22290     22289     22290     22291     22292     22291     22293
     22292     22293     22294     22295     22294     22296     22295     22296
     22297     22298     22297     22299     22298     22299     22300     22301
     22300     22302     22301     22302     22303     22304     22303     22305
     22304     22305     22306     22307     22306     22308     22307     22308
     22309     22310     22309     22311     22310     22311     22312     22313
     22312     22314     22313     22314     22315     22316     22315     22317
     22316     22317     22318     22319     22318     22320     22319     22320
     22321     22322     22321     22323     22322     22323     22324     22325
     22324     22326     22325     22326     22327     22328     22327     22329
     22328     22329     22330     22331     22330     22332     22331     22332
     22333     22334     22333     22335     22334     22335     22336     22337
     22336     22338     22337     22338     22339     22340     22339     22341
     22340     22341     22342     22343     22342     22344     22343     22344
     22345     22346     22345     22347     22346     22347     22348     22349
     22348     22350     22349     22350     22351     22352     22351     22353
     22352     22353     22354     22355     22354     22356     22355     22356
     22357     22358     22357     22359     22358     22359     22360     22361
     22360     22362     22361     22362     22363     22364     22363     22365
     22364     22365     22366     22367     22366     22368     22367     22368
     22369     22370     22369     22371     22370     22371     22372     22373
     22372     22374     22373     22374     22375     22376     22375     22377
     22376     22377     22378     22379     22378     22380     22379     22380
     22381     22382     22381     22383     22382     22383     22384     22385
     22384     22386     22385     22386     22387     22388     22387     22389
     22388     22389     22390     22391     22390     22392     22391     22392
     22393     22394     22393     22395     22394     22395     22396     22397
     22396     22398     22397     22398     22399     22400     22399     22401
     22400     22401     22402     22403     22402     22404     22403     22404
     22405     22406     22405     22407     22406     22407     22408     22409
     22408     22410     22409     22410     22411     22412     22411     22413
     22412     22413     22414     22415     22414     22416     22415     22416
     22417     22418     22417     22419     22418     22419     22420     22421
     22420     22422     22421     22422     22423     22424     22423     22425
     22424     22425     22426     22427     22426     22428     22427     22428
     22429     22430     22429     22431     22430     22431     22432     22433
     22432     22434     22433     22434     22435     22436     22435     22437
     22436     22437     22438     22439     22438     22440     22439     22440
     22441     22442     22441     22443     22442     22443     22444     22445
     22444     22446     22445     22446     22447     22448     22447     22449
     22448     22449     22450     22451     22450     22452     22451     22452
     22453     22454     22453     22455     22454     22455     22456     22457
     22456     22458     22457     22458     22459     22460     22459     22461
     22460     22461     22462     22463     22462     22464     22463     22464
     22465     22466     22465     22467     22466     22467     22468     22469
     22468     22470     22469     22470     22471     22472     22471     22473
     22472     22473     22474     22475     22474     22476     22475     22476
     22477     22478     22477     22479     22478     22479     22480     22481
     22480     22482     22481     22482     22483     22484     22483     22485
     22484     22485     22486     22487     22486     22488     22487     22488
     22489     22490     22489     22491     22490     22491     22492     22493
     22492     22494     22493     22494     22495     22496     22495     22497
     22496     22497     22498     22499     22498     22500     22499     22500
     22501     22502     22501     22503     22502     22503     22504     22505
     22504     22506     22505     22506     22507     22508     22507     22509
     22508     22509     22510     22511     22510     22512     22511     22512
     22513     22514     22513     22515     22514     22515     22516     22517
     22516     22518     22517     22518     22519     22520     22519     22521
     22520     22521     22522     22523     22522     22524     22523     22524
     22525     22526     22525     22527     22526     22527     22528     22529
     22528     22530     22529     22530     22531     22532     22531     22533
     22532     22533     22534     22535     22534     22536     22535     22536
     22537     22538     22537     22539     22538     22539     22540     22541
     22540     22542     22541     22542     22543     22544     22543     22545
     22544     22545     22546     22547     22546     22548     22547     22548
     22549     22550     22549     22551     22550     22551     22552     22553
     22552     22554     22553     22554     22555     22556     22555     22557
     22556     22557     22558     22559     22558     22560     22559     22560
     22561     22562     22561     22563     22562     22563     22564     22565
     22564     22566     22565     22566     22567     22568     22567     22569
     22568     22569     22570     22571     22570     22572     22571     22572
     22573     22574     22573     22575     22574     22575     22576     22577
     22576     22578     22577     22578     22579     22580     22579     22581
     22580     22581     22582     22583     22582     22584     22583     22584
     22585     22586     22585     22587     22586     22587     22588     22589
     22588     22590     22589     22590     22591     22592     22591     22593
     22592     22593     22594     22595     22594     22596     22595     22596
     22597     22598     22597     22599     22598     22599     22600     22601
     22600     22602     22601     22602     22603     22604     22603     22605
     22604     22605     22606     22607     22606     22608     22607     22608
     22609     22610     22609     22611     22610     22611     22612     22613
     22612     22614     22613     22614     22615     22616     22615     22617
     22616     22617     22618     22619     22618     22620     22619     22620
     22621     22622     22621     22623     22622     22623     22624     22625
     22624     22626     22625     22626     22627     22628     22627     22629
     22628     22629     22630     22631     22630     22632     22631     22632
     22633     22634     22633     22635     22634     22635     22636     22637
     22636     22638     22637     22638     22639     22640     22639     22641
     22640     22641     22642     22643     22642     22644     22643     22644
     22645     22646     22645     22647     22646     22647     22648     22649
     22648     22650     22649     22650     22651     22652     22651     22653
     22652     22653     22654     22655     22654     22656     22655     22656
     22657     22658     22657     22659     22658     22659     22660     22661
     22660     22662     22661     22662     22663     22664     22663     22665
     22664     22665     22666     22667     22666     22668     22667     22668
     22669     22670     22669     22671     22670     22671     22672     22673
     22672     22674     22673     22674     22675     22676     22675     22677
     22676     22677     22678     22679     22678     22680     22679     22680
     22681     22682     22681     22683     22682     22683     22684     22685
     22684     22686     22685     22686     22687     22688     22687     22689
     22688     22689     22690     22691     22690     22692     22691     22692
     22693     22694     22693     22695     22694     22695     22696     22697
     22696     22698     22697     22698     22699     22700     22699     22701
     22700     22701     22702     22703     22702     22704     22703     22704
     22705     22706     22705     22707     22706     22707     22708     22709
     22708     22710     22709     22710     22711     22712     22711     22713
     22712     22713     22714     22715     22714     22716     22715     22716
     22717     22718     22717     22719     22718     22719     22720     22721
     22720     22722     22721     22722     22723     22724     22723     22725
     22724     22725     22726     22727     22726     22728     22727     22728
     22729     22730     22729     22731     22730     22731     22732     22733
     22732     22734     22733     22734     22735     22736     22735     22737
     22736     22737     22738     22739     22738     22740     22739     22740
     22741     22742     22741     22743     22742     22743     22744     22745
     22744     22746     22745     22746     22747     22748     22747     22749
     22748     22749     22750     22751     22750     22752     22751     22752
     22753     22754     22753     22755     22754     22755     22756     22757
     22756     22758     22757     22758     22759     22760     22759     22761
     22760     22761     22762     22763     22762     22764     22763     22764
     22765     22766     22765     22767     22766     22767     22768     22769
     22768     22770     22769     22770     22771     22772     22771     22773
     22772     22773     22774     22775     22774     22776     22775     22776
     22777     22778     22777     22779     22778     22779     22780     22781
     22780     22782     22781     22782     22783     22784     22783     22785
     22784     22785     22786     22787     22786     22788     22787     22788
     22789     22790     22789     22791     22790     22791     22792     22793
     22792     22794     22793     22794     22795     22796     22795     22797
     22796     22797     22798     22799     22798     22800     22799     22800
     22801     22802     22801     22803     22802     22803     22804     22805
     22804     22806     22805     22806     22807     22808     22807     22809
     22808     22809     22810     22811     22810     22812     22811     22812
     22813     22814     22813     22815     22814     22815     22816     22817
     22816     22818     22817     22818     22819     22820     22819     22821
     22820     22821     22822     22823     22822     22824     22823     22824
     22825     22826     22825     22827     22826     22827     22828     22829
     22828     22830     22829     22830     22831     22832     22831     22833
     22832     22833     22834     22835     22834     22836     22835     22836
     22837     22838     22837     22839     22838     22839     22840     22841
     22840     22842     22841     22842     22843     22844     22843     22845
     22844     22845     22846     22847     22846     22848     22847     22848
     22849     22850     22849     22851     22850     22851     22852     22853
     22852     22854     22853     22854     22855     22856     22855     22857
     22856     22857     22858     22859     22858     22860     22859     22860
     22861     22862     22861     22863     22862     22863     22864     22865
     22864     22866     22865     22866     22867     22868     22867     22869
     22868     22869     22870     22871     22870     22872     22871     22872
     22873     22874     22873     22875     22874     22875     22876     22877
     22876     22878     22877     22878     22879     22880     22879     22881
     22880     22881     22882     22883     22882     22884     22883     22884
     22885     22886     22885     22887     22886     22887     22888     22889
     22888     22890     22889     22890     22891     22892     22891     22893
     22892     22893     22894     22895     22894     22896     22895     22896
     22897     22898     22897     22899     22898     22899     22900     22901
     22900     22902     22901     22902     22903     22904     22903     22905
     22904     22905     22906     22907     22906     22908     22907     22908
     22909     22910     22909     22911     22910     22911     22912     22913
     22912     22914     22913     22914     22915     22916     22915     22917
     22916     22917     22918     22919     22918     22920     22919     22920
     22921     22922     22921     22923     22922     22923     22924     22925
     22924     22926     22925     22926     22927     22928     22927     22929
     22928     22929     22930     22931     22930     22932     22931     22932
     22933     22934     22933     22935     22934     22935     22936     22937
     22936     22938     22937     22938     22939     22940     22939     22941
     22940     22941     22942     22943     22942     22944     22943     22944
     22945     22946     22945     22947     22946     22947     22948     22949
     22948     22950     22949     22950     22951     22952     22951     22953
     22952     22953     22954     22955     22954     22956     22955     22956
     22957     22958     22957     22959     22958     22959     22960     22961
     22960     22962     22961     22962     22963     22964     22963     22965
     22964     22965     22966     22967     22966     22968     22967     22968
     22969     22970     22969     22971     22970     22971     22972     22973
     22972     22974     22973     22974     22975     22976     22975     22977
     22976     22977     22978     22979     22978     22980     22979     22980
     22981     22982     22981     22983     22982     22983     22984     22985
     22984     22986     22985     22986     22987     22988     22987     22989
     22988     22989     22990     22991     22990     22992     22991     22992
     22993     22994     22993     22995     22994     22995     22996     22997
     22996     22998     22997     22998     22999     23000     22999     23001
     23000     23001     23002     23003     23002     23004     23003     23004
     23005     23006     23005     23007     23006     23007     23008     23009
     23008     23010     23009     23010     23011     23012     23011     23013
     23012     23013     23014     23015     23014     23016     23015     23016
     23017     23018     23017     23019     23018     23019     23020     23021
     23020     23022     23021     23022     23023     23024     23023     23025
     23024     23025     23026     23027     23026     23028     23027     23028
     23029     23030     23029     23031     23030     23031     23032     23033
     23032     23034     23033     23034     23035     23036     23035     23037
     23036     23037     23038     23039     23038     23040     23039     23040
     23041     23042     23041     23043     23042     23043     23044     23045
     23044     23046     23045     23046     23047     23048     23047     23049
     23048     23049     23050     23051     23050     23052     23051     23052
     23053     23054     23053     23055     23054     23055     23056     23057
     23056     23058     23057     23058     23059     23060     23059     23061
     23060     23061     23062     23063     23062     23064     23063     23064
     23065     23066     23065     23067     23066     23067     23068     23069
     23068     23070     23069     23070     23071     23072     23071     23073
     23072     23073     23074     23075     23074     23076     23075     23076
     23077     23078     23077     23079     23078     23079     23080     23081
     23080     23082     23081     23082     23083     23084     23083     23085
     23084     23085     23086     23087     23086     23088     23087     23088
     23089     23090     23089     23091     23090     23091     23092     23093
     23092     23094     23093     23094     23095     23096     23095     23097
     23096     23097     23098     23099     23098     23100     23099     23100
     23101     23102     23101     23103     23102     23103     23104     23105
     23104     23106     23105     23106     23107     23108     23107     23109
     23108     23109     23110     23111     23110     23112     23111     23112
     23113     23114     23113     23115     23114     23115     23116     23117
     23116     23118     23117     23118     23119     23120     23119     23121
     23120     23121     23122     23123     23122     23124     23123     23124
     23125     23126     23125     23127     23126     23127     23128     23129
     23128     23130     23129     23130     23131     23132     23131     23133
     23132     23133     23134     23135     23134     23136     23135     23136
     23137     23138     23137     23139     23138     23139     23140     23141
     23140     23142     23141     23142     23143     23144     23143     23145
     23144     23145     23146     23147     23146     23148     23147     23148
     23149     23150     23149     23151     23150     23151     23152     23153
     23152     23154     23153     23154     23155     23156     23155     23157
     23156     23157     23158     23159     23158     23160     23159     23160
     23161     23162     23161     23163     23162     23163     23164     23165
     23164     23166     23165     23166     23167     23168     23167     23169
     23168     23169     23170     23171     23170     23172     23171     23172
     23173     23174     23173     23175     23174     23175     23176     23177
     23176     23178     23177     23178     23179     23180     23179     23181
     23180     23181     23182     23183     23182     23184     23183     23184
     23185     23186     23185     23187     23186     23187     23188     23189
     23188     23190     23189     23190     23191     23192     23191     23193
     23192     23193     23194     23195     23194     23196     23195     23196
     23197     23198     23197     23199     23198     23199     23200     23201
     23200     23202     23201     23202     23203     23204     23203     23205
     23204     23205     23206     23207     23206     23208     23207     23208
     23209     23210     23209     23211     23210     23211     23212     23213
     23212     23214     23213     23214     23215     23216     23215     23217
     23216     23217     23218     23219     23218     23220     23219     23220
     23221     23222     23221     23223     23222     23223     23224     23225
     23224     23226     23225     23226     23227     23228     23227     23229
     23228     23229     23230     23231     23230     23232     23231     23232
     23233     23234     23233     23235     23234     23235     23236     23237
     23236     23238     23237     23238     23239     23240     23239     23241
     23240     23241     23242     23243     23242     23244     23243     23244
     23245     23246     23245     23247     23246     23247     23248     23249
     23248     23250     23249     23250     23251     23252     23251     23253
     23252     23253     23254     23255     23254     23256     23255     23256
     23257     23258     23257     23259     23258     23259     23260     23261
     23260     23262     23261     23262     23263     23264     23263     23265
     23264     23265     23266     23267     23266     23268     23267     23268
     23269     23270     23269     23271     23270     23271     23272     23273
     23272     23274     23273     23274     23275     23276     23275     23277
     23276     23277     23278     23279     23278     23280     23279     23280
     23281     23282     23281     23283     23282     23283     23284     23285
     23284     23286     23285     23286     23287     23288     23287     23289
     23288     23289     23290     23291     23290     23292     23291     23292
     23293     23294     23293     23295     23294     23295     23296     23297
     23296     23298     23297     23298     23299     23300     23299     23301
     23300     23301     23302     23303     23302     23304     23303     23304
     23305     23306     23305     23307     23306     23307     23308     23309
     23308     23310     23309     23310     23311     23312     23311     23313
     23312     23313     23314     23315     23314     23316     23315     23316
     23317     23318     23317     23319     23318     23319     23320     23321
     23320     23322     23321     23322     23323     23324     23323     23325
     23324     23325     23326     23327     23326     23328     23327     23328
     23329     23330     23329     23331     23330     23331     23332     23333
     23332     23334     23333     23334     23335     23336     23335     23337
     23336     23337     23338     23339     23338     23340     23339     23340
     23341     23342     23341     23343     23342     23343     23344     23345
     23344     23346     23345     23346     23347     23348     23347     23349
     23348     23349     23350     23351     23350     23352     23351     23352
     23353     23354     23353     23355     23354     23355     23356     23357
     23356     23358     23357     23358     23359     23360     23359     23361
     23360     23361     23362     23363     23362     23364     23363     23364
     23365     23366     23365     23367     23366     23367     23368     23369
     23368     23370     23369     23370     23371     23372     23371     23373
     23372     23373     23374     23375     23374     23376     23375     23376
     23377     23378     23377     23379     23378     23379     23380     23381
     23380     23382     23381     23382     23383     23384     23383     23385
     23384     23385     23386     23387     23386     23388     23387     23388
     23389     23390     23389     23391     23390     23391     23392     23393
     23392     23394     23393     23394     23395     23396     23395     23397
     23396     23397     23398     23399     23398     23400     23399     23400
     23401     23402     23401     23403     23402     23403     23404     23405
     23404     23406     23405     23406     23407     23408     23407     23409
     23408     23409     23410     23411     23410     23412     23411     23412
     23413     23414     23413     23415     23414     23415     23416     23417
     23416     23418     23417     23418     23419     23420     23419     23421
     23420     23421     23422     23423     23422     23424     23423     23424
     23425     23426     23425     23427     23426     23427     23428     23429
     23428     23430     23429     23430     23431     23432     23431     23433
     23432     23433     23434     23435     23434     23436     23435     23436
     23437     23438     23437     23439     23438     23439     23440     23441
     23440     23442     23441     23442     23443     23444     23443     23445
     23444     23445     23446     23447     23446     23448     23447     23448
     23449     23450     23449     23451     23450     23451     23452     23453
     23452     23454     23453     23454     23455     23456     23455     23457
     23456     23457     23458     23459     23458     23460     23459     23460
     23461     23462     23461     23463     23462     23463     23464     23465
     23464     23466     23465     23466     23467     23468     23467     23469
     23468     23469     23470     23471     23470     23472     23471     23472
     23473     23474     23473     23475     23474     23475     23476     23477
     23476     23478     23477     23478     23479     23480     23479     23481
     23480     23481     23482     23483     23482     23484     23483     23484
     23485     23486     23485     23487     23486     23487     23488     23489
     23488     23490     23489     23490     23491     23492     23491     23493
     23492     23493     23494     23495     23494     23496     23495     23496
     23497     23498     23497     23499     23498     23499     23500     23501
     23500     23502     23501     23502     23503     23504     23503     23505
     23504     23505     23506     23507     23506     23508     23507     23508
     23509     23510     23509     23511     23510     23511     23512     23513
     23512     23514     23513     23514     23515     23516     23515     23517
     23516     23517     23518     23519     23518     23520     23519     23520
     23521     23522     23521     23523     23522     23523     23524     23525
     23524     23526     23525     23526     23527     23528     23527     23529
     23528     23529     23530     23531     23530     23532     23531     23532
     23533     23534     23533     23535     23534     23535     23536     23537
     23536     23538     23537     23538     23539     23540     23539     23541
     23540     23541     23542     23543     23542     23544     23543     23544
     23545     23546     23545     23547     23546     23547     23548     23549
     23548     23550     23549     23550     23551     23552     23551     23553
     23552     23553     23554     23555     23554     23556     23555     23556
     23557     23558     23557     23559     23558     23559     23560     23561
     23560     23562     23561     23562     23563     23564     23563     23565
     23564     23565     23566     23567     23566     23568     23567     23568
     23569     23570     23569     23571     23570     23571     23572     23573
     23572     23574     23573     23574     23575     23576     23575     23577
     23576     23577     23578     23579     23578     23580     23579     23580
     23581     23582     23581     23583     23582     23583     23584     23585
     23584     23586     23585     23586     23587     23588     23587     23589
     23588     23589     23590     23591     23590     23592     23591     23592
     23593     23594     23593     23595     23594     23595     23596     23597
     23596     23598     23597     23598     23599     23600     23599     23601
     23600     23601     23602     23603     23602     23604     23603     23604
     23605     23606     23605     23607     23606     23607     23608     23609
     23608     23610     23609     23610     23611     23612     23611     23613
     23612     23613     23614     23615     23614     23616     23615     23616
     23617     23618     23617     23619     23618     23619     23620     23621
     23620     23622     23621     23622     23623     23624     23623     23625
     23624     23625     23626     23627     23626     23628     23627     23628
     23629     23630     23629     23631     23630     23631     23632     23633
     23632     23634     23633     23634     23635     23636     23635     23637
     23636     23637     23638     23639     23638     23640     23639     23640
     23641     23642     23641     23643     23642     23643     23644     23645
     23644     23646     23645     23646     23647     23648     23647     23649
     23648     23649     23650     23651     23650     23652     23651     23652
     23653     23654     23653     23655     23654     23655     23656     23657
     23656     23658     23657     23658     23659     23660     23659     23661
     23660     23661     23662     23663     23662     23664     23663     23664
     23665     23666     23665     23667     23666     23667     23668     23669
     23668     23670     23669     23670     23671     23672     23671     23673
     23672     23673     23674     23675     23674     23676     23675     23676
     23677     23678     23677     23679     23678     23679     23680     23681
     23680     23682     23681     23682     23683     23684     23683     23685
     23684     23685     23686     23687     23686     23688     23687     23688
     23689     23690     23689     23691     23690     23691     23692     23693
     23692     23694     23693     23694     23695     23696     23695     23697
     23696     23697     23698     23699     23698     23700     23699     23700
     23701     23702     23701     23703     23702     23703     23704     23705
     23704     23706     23705     23706     23707     23708     23707     23709
     23708     23709     23710     23711     23710     23712     23711     23712
     23713     23714     23713     23715     23714     23715     23716     23717
     23716     23718     23717     23718     23719     23720     23719     23721
     23720     23721     23722     23723     23722     23724     23723     23724
     23725     23726     23725     23727     23726     23727     23728     23729
     23728     23730     23729     23730     23731     23732     23731     23733
     23732     23733     23734     23735     23734     23736     23735     23736
     23737     23738     23737     23739     23738     23739     23740     23741
     23740     23742     23741     23742     23743     23744     23743     23745
     23744     23745     23746     23747     23746     23748     23747     23748
     23749     23750     23749     23751     23750     23751     23752     23753
     23752     23754     23753     23754     23755     23756     23755     23757
     23756     23757     23758     23759     23758     23760     23759     23760
     23761     23762     23761     23763     23762     23763     23764     23765
     23764     23766     23765     23766     23767     23768     23767     23769
     23768     23769     23770     23771     23770     23772     23771     23772
     23773     23774     23773     23775     23774     23775     23776     23777
     23776     23778     23777     23778     23779     23780     23779     23781
     23780     23781     23782     23783     23782     23784     23783     23784
     23785     23786     23785     23787     23786     23787     23788     23789
     23788     23790     23789     23790     23791     23792     23791     23793
     23792     23793     23794     23795     23794     23796     23795     23796
     23797     23798     23797     23799     23798     23799     23800     23801
     23800     23802     23801     23802     23803     23804     23803     23805
     23804     23805     23806     23807     23806     23808     23807     23808
     23809     23810     23809     23811     23810     23811     23812     23813
     23812     23814     23813     23814     23815     23816     23815     23817
     23816     23817     23818     23819     23818     23820     23819     23820
     23821     23822     23821     23823     23822     23823     23824     23825
     23824     23826     23825     23826     23827     23828     23827     23829
     23828     23829     23830     23831     23830     23832     23831     23832
     23833     23834     23833     23835     23834     23835     23836     23837
     23836     23838     23837     23838     23839     23840     23839     23841
     23840     23841     23842     23843     23842     23844     23843     23844
     23845     23846     23845     23847     23846     23847     23848     23849
     23848     23850     23849     23850     23851     23852     23851     23853
     23852     23853     23854     23855     23854     23856     23855     23856
     23857     23858     23857     23859     23858     23859     23860     23861
     23860     23862     23861     23862     23863     23864     23863     23865
     23864     23865     23866     23867     23866     23868     23867     23868
     23869     23870     23869     23871     23870     23871     23872     23873
     23872     23874     23873     23874     23875     23876     23875     23877
     23876     23877     23878     23879     23878     23880     23879     23880
     23881     23882     23881     23883     23882     23883     23884     23885
     23884     23886     23885     23886     23887     23888     23887     23889
     23888     23889     23890     23891     23890     23892     23891     23892
     23893     23894     23893     23895     23894     23895     23896     23897
     23896     23898     23897     23898     23899     23900     23899     23901
     23900     23901     23902     23903     23902     23904     23903     23904
     23905     23906     23905     23907     23906     23907     23908     23909
     23908     23910     23909     23910     23911     23912     23911     23913
     23912     23913     23914     23915     23914     23916     23915     23916
     23917     23918     23917     23919     23918     23919     23920     23921
     23920     23922     23921     23922     23923     23924     23923     23925
     23924     23925     23926     23927     23926     23928     23927     23928
     23929     23930     23929     23931     23930     23931     23932     23933
     23932     23934     23933     23934     23935     23936     23935     23937
     23936     23937     23938     23939     23938     23940     23939     23940
     23941     23942     23941     23943     23942     23943     23944     23945
     23944     23946     23945     23946     23947     23948     23947     23949
     23948     23949     23950     23951     23950     23952     23951     23952
     23953     23954     23953     23955     23954     23955     23956     23957
     23956     23958     23957     23958     23959     23960     23959     23961
     23960     23961     23962     23963     23962     23964     23963     23964
     23965     23966     23965     23967     23966     23967     23968     23969
     23968     23970     23969     23970     23971     23972     23971     23973
     23972     23973     23974     23975     23974     23976     23975     23976
     23977     23978     23977     23979     23978     23979     23980     23981
     23980     23982     23981     23982     23983     23984     23983     23985
     23984     23985     23986     23987     23986     23988     23987     23988
     23989     23990     23989     23991     23990     23991     23992     23993
     23992     23994     23993     23994     23995     23996     23995     23997
     23996     23997     23998     23999     23998     24000     23999     24000
     24001     24002     24001     24003     24002     24003     24004     24005
     24004     24006     24005     24006     24007     24008     24007     24009
     24008     24009     24010     24011     24010     24012     24011     24012
     24013     24014     24013     24015     24014     24015     24016     24017
     24016     24018     24017     24018     24019     24020     24019     24021
     24020     24021     24022     24023     24022     24024     24023     24024
     24025     24026     24025     24027     24026     24027     24028     24029
     24028     24030     24029     24030     24031     24032     24031     24033
     24032     24033     24034     24035     24034     24036     24035     24036
     24037     24038     24037     24039     24038     24039     24040     24041
     24040     24042     24041     24042     24043     24044     24043     24045
     24044     24045     24046     24047     24046     24048     24047     24048
     24049     24050     24049     24051     24050     24051     24052     24053
     24052     24054     24053     24054     24055     24056     24055     24057
     24056     24057     24058     24059     24058     24060     24059     24060
     24061     24062     24061     24063     24062     24063     24064     24065
     24064     24066     24065     24066     24067     24068     24067     24069
     24068     24069     24070     24071     24070     24072     24071     24072
     24073     24074     24073     24075     24074     24075     24076     24077
     24076     24078     24077     24078     24079     24080     24079     24081
     24080     24081     24082     24083     24082     24084     24083     24084
     24085     24086     24085     24087     24086     24087     24088     24089
     24088     24090     24089     24090     24091     24092     24091     24093
     24092     24093     24094     24095     24094     24096     24095     24096
     24097     24098     24097     24099     24098     24099     24100     24101
     24100     24102     24101     24102     24103     24104     24103     24105
     24104     24105     24106     24107     24106     24108     24107     24108
     24109     24110     24109     24111     24110     24111     24112     24113
     24112     24114     24113     24114     24115     24116     24115     24117
     24116     24117     24118     24119     24118     24120     24119     24120
     24121     24122     24121     24123     24122     24123     24124     24125
     24124     24126     24125     24126     24127     24128     24127     24129
     24128     24129     24130     24131     24130     24132     24131     24132
     24133     24134     24133     24135     24134     24135     24136     24137
     24136     24138     24137     24138     24139     24140     24139     24141
     24140     24141     24142     24143     24142     24144     24143     24144
     24145     24146     24145     24147     24146     24147     24148     24149
     24148     24150     24149     24150     24151     24152     24151     24153
     24152     24153     24154     24155     24154     24156     24155     24156
     24157     24158     24157     24159     24158     24159     24160     24161
     24160     24162     24161     24162     24163     24164     24163     24165
     24164     24165     24166     24167     24166     24168     24167     24168
     24169     24170     24169     24171     24170     24171     24172     24173
     24172     24174     24173     24174     24175     24176     24175     24177
     24176     24177     24178     24179     24178     24180     24179     24180
     24181     24182     24181     24183     24182     24183     24184     24185
     24184     24186     24185     24186     24187     24188     24187     24189
     24188     24189     24190     24191     24190     24192     24191     24192
     24193     24194     24193     24195     24194     24195     24196     24197
     24196     24198     24197     24198     24199     24200     24199     24201
     24200     24201     24202     24203     24202     24204     24203     24204
     24205     24206     24205     24207     24206     24207     24208     24209
     24208     24210     24209     24210     24211     24212     24211     24213
     24212     24213     24214     24215     24214     24216     24215     24216
     24217     24218     24217     24219     24218     24219     24220     24221
     24220     24222     24221     24222     24223     24224     24223     24225
     24224     24225     24226     24227     24226     24228     24227     24228
     24229     24230     24229     24231     24230     24231     24232     24233
     24232     24234     24233     24234     24235     24236     24235     24237
     24236     24237     24238     24239     24238     24240     24239     24240
     24241     24242     24241     24243     24242     24243     24244     24245
     24244     24246     24245     24246     24247     24248     24247     24249
     24248     24249     24250     24251     24250     24252     24251     24252
     24253     24254     24253     24255     24254     24255     24256     24257
     24256     24258     24257     24258     24259     24260     24259     24261
     24260     24261     24262     24263     24262     24264     24263     24264
     24265     24266     24265     24267     24266     24267     24268     24269
     24268     24270     24269     24270     24271     24272     24271     24273
     24272     24273     24274     24275     24274     24276     24275     24276
     24277     24278     24277     24279     24278     24279     24280     24281
     24280     24282     24281     24282     24283     24284     24283     24285
     24284     24285     24286     24287     24286     24288     24287     24288
     24289     24290     24289     24291     24290     24291     24292     24293
     24292     24294     24293     24294     24295     24296     24295     24297
     24296     24297     24298     24299     24298     24300     24299     24300
     24301     24302     24301     24303     24302     24303     24304     24305
     24304     24306     24305     24306     24307     24308     24307     24309
     24308     24309     24310     24311     24310     24312     24311     24312
     24313     24314     24313     24315     24314     24315     24316     24317
     24316     24318     24317     24318     24319     24320     24319     24321
     24320     24321     24322     24323     24322     24324     24323     24324
     24325     24326     24325     24327     24326     24327     24328     24329
     24328     24330     24329     24330     24331     24332     24331     24333
     24332     24333     24334     24335     24334     24336     24335     24336
     24337     24338     24337     24339     24338     24339     24340     24341
     24340     24342     24341     24342     24343     24344     24343     24345
     24344     24345     24346     24347     24346     24348     24347     24348
     24349     24350     24349     24351     24350     24351     24352     24353
     24352     24354     24353     24354     24355     24356     24355     24357
     24356     24357     24358     24359     24358     24360     24359     24360
     24361     24362     24361     24363     24362     24363     24364     24365
     24364     24366     24365     24366     24367     24368     24367     24369
     24368     24369     24370     24371     24370     24372     24371     24372
     24373     24374     24373     24375     24374     24375     24376     24377
     24376     24378     24377     24378     24379     24380     24379     24381
     24380     24381     24382     24383     24382     24384     24383     24384
     24385     24386     24385     24387     24386     24387     24388     24389
     24388     24390     24389     24390     24391     24392     24391     24393
     24392     24393     24394     24395     24394     24396     24395     24396
     24397     24398     24397     24399     24398     24399     24400     24401
     24400     24402     24401     24402     24403     24404     24403     24405
     24404     24405     24406     24407     24406     24408     24407     24408
     24409     24410     24409     24411     24410     24411     24412     24413
     24412     24414     24413     24414     24415     24416     24415     24417
     24416     24417     24418     24419     24418     24420     24419     24420
     24421     24422     24421     24423     24422     24423     24424     24425
     24424     24426     24425     24426     24427     24428     24427     24429
     24428     24429     24430     24431     24430     24432     24431     24432
     24433     24434     24433     24435     24434     24435     24436     24437
     24436     24438     24437     24438     24439     24440     24439     24441
     24440     24441     24442     24443     24442     24444     24443     24444
     24445     24446     24445     24447     24446     24447     24448     24449
     24448     24450     24449     24450     24451     24452     24451     24453
     24452     24453     24454     24455     24454     24456     24455     24456
     24457     24458     24457     24459     24458     24459     24460     24461
     24460     24462     24461     24462     24463     24464     24463     24465
     24464     24465     24466     24467     24466     24468     24467     24468
     24469     24470     24469     24471     24470     24471     24472     24473
     24472     24474     24473     24474     24475     24476     24475     24477
     24476     24477     24478     24479     24478     24480     24479     24480
     24481     24482     24481     24483     24482     24483     24484     24485
     24484     24486     24485     24486     24487     24488     24487     24489
     24488     24489     24490     24491     24490     24492     24491     24492
     24493     24494     24493     24495     24494     24495     24496     24497
     24496     24498     24497     24498     24499     24500     24499     24501
     24500     24501     24502     24503     24502     24504     24503     24504
     24505     24506     24505     24507     24506     24507     24508     24509
     24508     24510     24509     24510     24511     24512     24511     24513
     24512     24513     24514     24515     24514     24516     24515     24516
     24517     24518     24517     24519     24518     24519     24520     24521
     24520     24522     24521     24522     24523     24524     24523     24525
     24524     24525     24526     24527     24526     24528     24527     24528
     24529     24530     24529     24531     24530     24531     24532     24533
     24532     24534     24533     24534     24535     24536     24535     24537
     24536     24537     24538     24539     24538     24540     24539     24540
     24541     24542     24541     24543     24542     24543     24544     24545
     24544     24546     24545     24546     24547     24548     24547     24549
     24548     24549     24550     24551     24550     24552     24551     24552
     24553     24554     24553     24555     24554     24555     24556     24557
     24556     24558     24557     24558     24559     24560     24559     24561
     24560     24561     24562     24563     24562     24564     24563     24564
     24565     24566     24565     24567     24566     24567     24568     24569
     24568     24570     24569     24570     24571     24572     24571     24573
     24572     24573     24574     24575     24574     24576     24575     24576
     24577     24578     24577     24579     24578     24579     24580     24581
     24580     24582     24581     24582     24583     24584     24583     24585
     24584     24585     24586     24587     24586     24588     24587     24588
     24589     24590     24589     24591     24590     24591     24592     24593
     24592     24594     24593     24594     24595     24596     24595     24597
     24596     24597     24598     24599     24598     24600     24599     24600
     24601     24602     24601     24603     24602     24603     24604     24605
     24604     24606     24605     24606     24607     24608     24607     24609
     24608     24609     24610     24611     24610     24612     24611     24612
     24613     24614     24613     24615     24614     24615     24616     24617
     24616     24618     24617     24618     24619     24620     24619     24621
     24620     24621     24622     24623     24622     24624     24623     24624
     24625     24626     24625     24627     24626     24627     24628     24629
     24628     24630     24629     24630     24631     24632     24631     24633
     24632     24633     24634     24635     24634     24636     24635     24636
     24637     24638     24637     24639     24638     24639     24640     24641
     24640     24642     24641     24642     24643     24644     24643     24645
     24644     24645     24646     24647     24646     24648     24647     24648
     24649     24650     24649     24651     24650     24651     24652     24653
     24652     24654     24653     24654     24655     24656     24655     24657
     24656     24657     24658     24659     24658     24660     24659     24660
     24661     24662     24661     24663     24662     24663     24664     24665
     24664     24666     24665     24666     24667     24668     24667     24669
     24668     24669     24670     24671     24670     24672     24671     24672
     24673     24674     24673     24675     24674     24675     24676     24677
     24676     24678     24677     24678     24679     24680     24679     24681
     24680     24681     24682     24683     24682     24684     24683     24684
     24685     24686     24685     24687     24686     24687     24688     24689
     24688     24690     24689     24690     24691     24692     24691     24693
     24692     24693     24694     24695     24694     24696     24695     24696
     24697     24698     24697     24699     24698     24699     24700     24701
     24700     24702     24701     24702     24703     24704     24703     24705
     24704     24705     24706     24707     24706     24708     24707     24708
     24709     24710     24709     24711     24710     24711     24712     24713
     24712     24714     24713     24714     24715     24716     24715     24717
     24716     24717     24718     24719     24718     24720     24719     24720
     24721     24722     24721     24723     24722     24723     24724     24725
     24724     24726     24725     24726     24727     24728     24727     24729
     24728     24729     24730     24731     24730     24732     24731     24732
     24733     24734     24733     24735     24734     24735     24736     24737
     24736     24738     24737     24738     24739     24740     24739     24741
     24740     24741     24742     24743     24742     24744     24743     24744
     24745     24746     24745     24747     24746     24747     24748     24749
     24748     24750     24749     24750     24751     24752     24751     24753
     24752     24753     24754     24755     24754     24756     24755     24756
     24757     24758     24757     24759     24758     24759     24760     24761
     24760     24762     24761     24762     24763     24764     24763     24765
     24764     24765     24766     24767     24766     24768     24767     24768
     24769     24770     24769     24771     24770     24771     24772     24773
     24772     24774     24773     24774     24775     24776     24775     24777
     24776     24777     24778     24779     24778     24780     24779     24780
     24781     24782     24781     24783     24782     24783     24784     24785
     24784     24786     24785     24786     24787     24788     24787     24789
     24788     24789     24790     24791     24790     24792     24791     24792
     24793     24794     24793     24795     24794     24795     24796     24797
     24796     24798     24797     24798     24799     24800     24799     24801
     24800     24801     24802     24803     24802     24804     24803     24804
     24805     24806     24805     24807     24806     24807     24808     24809
     24808     24810     24809     24810     24811     24812     24811     24813
     24812     24813     24814     24815     24814     24816     24815     24816
     24817     24818     24817     24819     24818     24819     24820     24821
     24820     24822     24821     24822     24823     24824     24823     24825
     24824     24825     24826     24827     24826     24828     24827     24828
     24829     24830     24829     24831     24830     24831     24832     24833
     24832     24834     24833     24834     24835     24836     24835     24837
     24836     24837     24838     24839     24838     24840     24839     24840
     24841     24842     24841     24843     24842     24843     24844     24845
     24844     24846     24845     24846     24847     24848     24847     24849
     24848     24849     24850     24851     24850     24852     24851     24852
     24853     24854     24853     24855     24854     24855     24856     24857
     24856     24858     24857     24858     24859     24860     24859     24861
     24860     24861     24862     24863     24862     24864     24863     24864
     24865     24866     24865     24867     24866     24867     24868     24869
     24868     24870     24869     24870     24871     24872     24871     24873
     24872     24873     24874     24875     24874     24876     24875     24876
     24877     24878     24877     24879     24878     24879     24880     24881
     24880     24882     24881     24882     24883     24884     24883     24885
     24884     24885     24886     24887     24886     24888     24887     24888
     24889     24890     24889     24891     24890     24891     24892     24893
     24892     24894     24893     24894     24895     24896     24895     24897
     24896     24897     24898     24899     24898     24900     24899     24900
     24901     24902     24901     24903     24902     24903     24904     24905
     24904     24906     24905     24906     24907     24908     24907     24909
     24908     24909     24910     24911     24910     24912     24911     24912
     24913     24914     24913     24915     24914     24915     24916     24917
     24916     24918     24917     24918     24919     24920     24919     24921
     24920     24921     24922     24923     24922     24924     24923     24924
     24925     24926     24925     24927     24926     24927     24928     24929
     24928     24930     24929     24930     24931     24932     24931     24933
     24932     24933     24934     24935     24934     24936     24935     24936
     24937     24938     24937     24939     24938     24939     24940     24941
     24940     24942     24941     24942     24943     24944     24943     24945
     24944     24945     24946     24947     24946     24948     24947     24948
     24949     24950     24949     24951     24950     24951     24952     24953
     24952     24954     24953     24954     24955     24956     24955     24957
     24956     24957     24958     24959     24958     24960     24959     24960
     24961     24962     24961     24963     24962     24963     24964     24965
     24964     24966     24965     24966     24967     24968     24967     24969
     24968     24969     24970     24971     24970     24972     24971     24972
     24973     24974     24973     24975     24974     24975     24976     24977
     24976     24978     24977     24978     24979     24980     24979     24981
     24980     24981     24982     24983     24982     24984     24983     24984
     24985     24986     24985     24987     24986     24987     24988     24989
     24988     24990     24989     24990     24991     24992     24991     24993
     24992     24993     24994     24995     24994     24996     24995     24996
     24997     24998     24997     24999     24998     24999     25000     25001
     25000     25002     25001     25002     25003     25004     25003     25005
     25004     25005     25006     25007     25006     25008     25007     25008
     25009     25010     25009     25011     25010     25011     25012     25013
     25012     25014     25013     25014     25015     25016     25015     25017
     25016     25017     25018     25019     25018     25020     25019     25020
     25021     25022     25021     25023     25022     25023     25024     25025
     25024     25026     25025     25026     25027     25028     25027     25029
     25028     25029     25030     25031     25030     25032     25031     25032
     25033     25034     25033     25035     25034     25035     25036     25037
     25036     25038     25037     25038     25039     25040     25039     25041
     25040     25041     25042     25043     25042     25044     25043     25044
     25045     25046     25045     25047     25046     25047     25048     25049
     25048     25050     25049     25050     25051     25052     25051     25053
     25052     25053     25054     25055     25054     25056     25055     25056
     25057     25058     25057     25059     25058     25059     25060     25061
     25060     25062     25061     25062     25063     25064     25063     25065
     25064     25065     25066     25067     25066     25068     25067     25068
     25069     25070     25069     25071     25070     25071     25072     25073
     25072     25074     25073     25074     25075     25076     25075     25077
     25076     25077     25078     25079     25078     25080     25079     25080
     25081     25082     25081     25083     25082     25083     25084     25085
     25084     25086     25085     25086     25087     25088     25087     25089
     25088     25089     25090     25091     25090     25092     25091     25092
     25093     25094     25093     25095     25094     25095     25096     25097
     25096     25098     25097     25098     25099     25100     25099     25101
     25100     25101     25102     25103     25102     25104     25103     25104
     25105     25106     25105     25107     25106     25107     25108     25109
     25108     25110     25109     25110     25111     25112     25111     25113
     25112     25113     25114     25115     25114     25116     25115     25116
     25117     25118     25117     25119     25118     25119     25120     25121
     25120     25122     25121     25122     25123     25124     25123     25125
     25124     25125     25126     25127     25126     25128     25127     25128
     25129     25130     25129     25131     25130     25131     25132     25133
     25132     25134     25133     25134     25135     25136     25135     25137
     25136     25137     25138     25139     25138     25140     25139     25140
     25141     25142     25141     25143     25142     25143     25144     25145
     25144     25146     25145     25146     25147     25148     25147     25149
     25148     25149     25150     25151     25150     25152     25151     25152
     25153     25154     25153     25155     25154     25155     25156     25157
     25156     25158     25157     25158     25159     25160     25159     25161
     25160     25161     25162     25163     25162     25164     25163     25164
     25165     25166     25165     25167     25166     25167     25168     25169
     25168     25170     25169     25170     25171     25172     25171     25173
     25172     25173     25174     25175     25174     25176     25175     25176
     25177     25178     25177     25179     25178     25179     25180     25181
     25180     25182     25181     25182     25183     25184     25183     25185
     25184     25185     25186     25187     25186     25188     25187     25188
     25189     25190     25189     25191     25190     25191     25192     25193
     25192     25194     25193     25194     25195     25196     25195     25197
     25196     25197     25198     25199     25198     25200     25199     25200
     25201     25202     25201     25203     25202     25203     25204     25205
     25204     25206     25205     25206     25207     25208     25207     25209
     25208     25209     25210     25211     25210     25212     25211     25212
     25213     25214     25213     25215     25214     25215     25216     25217
     25216     25218     25217     25218     25219     25220     25219     25221
     25220     25221     25222     25223     25222     25224     25223     25224
     25225     25226     25225     25227     25226     25227     25228     25229
     25228     25230     25229     25230     25231     25232     25231     25233
     25232     25233     25234     25235     25234     25236     25235     25236
     25237     25238     25237     25239     25238     25239     25240     25241
     25240     25242     25241     25242     25243     25244     25243     25245
     25244     25245     25246     25247     25246     25248     25247     25248
     25249     25250     25249     25251     25250     25251     25252     25253
     25252     25254     25253     25254     25255     25256     25255     25257
     25256     25257     25258     25259     25258     25260     25259     25260
     25261     25262     25261     25263     25262     25263     25264     25265
     25264     25266     25265     25266     25267     25268     25267     25269
     25268     25269     25270     25271     25270     25272     25271     25272
     25273     25274     25273     25275     25274     25275     25276     25277
     25276     25278     25277     25278     25279     25280     25279     25281
     25280     25281     25282     25283     25282     25284     25283     25284
     25285     25286     25285     25287     25286     25287     25288     25289
     25288     25290     25289     25290     25291     25292     25291     25293
     25292     25293     25294     25295     25294     25296     25295     25296
     25297     25298     25297     25299     25298     25299     25300     25301
     25300     25302     25301     25302     25303     25304     25303     25305
     25304     25305     25306     25307     25306     25308     25307     25308
     25309     25310     25309     25311     25310     25311     25312     25313
     25312     25314     25313     25314     25315     25316     25315     25317
     25316     25317     25318     25319     25318     25320     25319     25320
     25321     25322     25321     25323     25322     25323     25324     25325
     25324     25326     25325     25326     25327     25328     25327     25329
     25328     25329     25330     25331     25330     25332     25331     25332
     25333     25334     25333     25335     25334     25335     25336     25337
     25336     25338     25337     25338     25339     25340     25339     25341
     25340     25341     25342     25343     25342     25344     25343     25344
     25345     25346     25345     25347     25346     25347     25348     25349
     25348     25350     25349     25350     25351     25352     25351     25353
     25352     25353     25354     25355     25354     25356     25355     25356
     25357     25358     25357     25359     25358     25359     25360     25361
     25360     25362     25361     25362     25363     25364     25363     25365
     25364     25365     25366     25367     25366     25368     25367     25368
     25369     25370     25369     25371     25370     25371     25372     25373
     25372     25374     25373     25374     25375     25376     25375     25377
     25376     25377     25378     25379     25378     25380     25379     25380
     25381     25382     25381     25383     25382     25383     25384     25385
     25384     25386     25385     25386     25387     25388     25387     25389
     25388     25389     25390     25391     25390     25392     25391     25392
     25393     25394     25393     25395     25394     25395     25396     25397
     25396     25398     25397     25398     25399     25400     25399     25401
     25400     25401     25402     25403     25402     25404     25403     25404
     25405     25406     25405     25407     25406     25407     25408     25409
     25408     25410     25409     25410     25411     25412     25411     25413
     25412     25413     25414     25415     25414     25416     25415     25416
     25417     25418     25417     25419     25418     25419     25420     25421
     25420     25422     25421     25422     25423     25424     25423     25425
     25424     25425     25426     25427     25426     25428     25427     25428
     25429     25430     25429     25431     25430     25431     25432     25433
     25432     25434     25433     25434     25435     25436     25435     25437
     25436     25437     25438     25439     25438     25440     25439     25440
     25441     25442     25441     25443     25442     25443     25444     25445
     25444     25446     25445     25446     25447     25448     25447     25449
     25448     25449     25450     25451     25450     25452     25451     25452
     25453     25454     25453     25455     25454     25455     25456     25457
     25456     25458     25457     25458     25459     25460     25459     25461
     25460     25461     25462     25463     25462     25464     25463     25464
     25465     25466     25465     25467     25466     25467     25468     25469
     25468     25470     25469     25470     25471     25472     25471     25473
     25472     25473     25474     25475     25474     25476     25475     25476
     25477     25478     25477     25479     25478     25479     25480     25481
     25480     25482     25481     25482     25483     25484     25483     25485
     25484     25485     25486     25487     25486     25488     25487     25488
     25489     25490     25489     25491     25490     25491     25492     25493
     25492     25494     25493     25494     25495     25496     25495     25497
     25496     25497     25498     25499     25498     25500     25499     25500
     25501     25502     25501     25503     25502     25503     25504     25505
     25504     25506     25505     25506     25507     25508     25507     25509
     25508     25509     25510     25511     25510     25512     25511     25512
     25513     25514     25513     25515     25514     25515     25516     25517
     25516     25518     25517     25518     25519     25520     25519     25521
     25520     25521     25522     25523     25522     25524     25523     25524
     25525     25526     25525     25527     25526     25527     25528     25529
     25528     25530     25529     25530     25531     25532     25531     25533
     25532     25533     25534     25535     25534     25536     25535     25536
     25537     25538     25537     25539     25538     25539     25540     25541
     25540     25542     25541     25542     25543     25544     25543     25545
     25544     25545     25546     25547     25546     25548     25547     25548
     25549     25550     25549     25551     25550     25551     25552     25553
     25552     25554     25553     25554     25555     25556     25555     25557
     25556     25557     25558     25559     25558     25560     25559     25560
     25561     25562     25561     25563     25562     25563     25564     25565
     25564     25566     25565     25566     25567     25568     25567     25569
     25568     25569     25570     25571     25570     25572     25571     25572
     25573     25574     25573     25575     25574     25575     25576     25577
     25576     25578     25577     25578     25579     25580     25579     25581
     25580     25581     25582     25583     25582     25584     25583     25584
     25585     25586     25585     25587     25586     25587     25588     25589
     25588     25590     25589     25590     25591     25592     25591     25593
     25592     25593     25594     25595     25594     25596     25595     25596
     25597     25598     25597     25599     25598     25599     25600     25601
     25600     25602     25601     25602     25603     25604     25603     25605
     25604     25605     25606     25607     25606     25608     25607     25608
     25609     25610     25609     25611     25610     25611     25612     25613
     25612     25614     25613     25614     25615     25616     25615     25617
     25616     25617     25618     25619     25618     25620     25619     25620
     25621     25622     25621     25623     25622     25623     25624     25625
     25624     25626     25625     25626     25627     25628     25627     25629
     25628     25629     25630     25631     25630     25632     25631     25632
     25633     25634     25633     25635     25634     25635     25636     25637
     25636     25638     25637     25638     25639     25640     25639     25641
     25640     25641     25642     25643     25642     25644     25643     25644
     25645     25646     25645     25647     25646     25647     25648     25649
     25648     25650     25649     25650     25651     25652     25651     25653
     25652     25653     25654     25655     25654     25656     25655     25656
     25657     25658     25657     25659     25658     25659     25660     25661
     25660     25662     25661     25662     25663     25664     25663     25665
     25664     25665     25666     25667     25666     25668     25667     25668
     25669     25670     25669     25671     25670     25671     25672     25673
     25672     25674     25673     25674     25675     25676     25675     25677
     25676     25677     25678     25679     25678     25680     25679     25680
     25681     25682     25681     25683     25682     25683     25684     25685
     25684     25686     25685     25686     25687     25688     25687     25689
     25688     25689     25690     25691     25690     25692     25691     25692
     25693     25694     25693     25695     25694     25695     25696     25697
     25696     25698     25697     25698     25699     25700     25699     25701
     25700     25701     25702     25703     25702     25704     25703     25704
     25705     25706     25705     25707     25706     25707     25708     25709
     25708     25710     25709     25710     25711     25712     25711     25713
     25712     25713     25714     25715     25714     25716     25715     25716
     25717     25718     25717     25719     25718     25719     25720     25721
     25720     25722     25721     25722     25723     25724     25723     25725
     25724     25725     25726     25727     25726     25728     25727     25728
     25729     25730     25729     25731     25730     25731     25732     25733
     25732     25734     25733     25734     25735     25736     25735     25737
     25736     25737     25738     25739     25738     25740     25739     25740
     25741     25742     25741     25743     25742     25743     25744     25745
     25744     25746     25745     25746     25747     25748     25747     25749
     25748     25749     25750     25751     25750     25752     25751     25752
     25753     25754     25753     25755     25754     25755     25756     25757
     25756     25758     25757     25758     25759     25760     25759     25761
     25760     25761     25762     25763     25762     25764     25763     25764
     25765     25766     25765     25767     25766     25767     25768     25769
     25768     25770     25769     25770     25771     25772     25771     25773
     25772     25773     25774     25775     25774     25776     25775     25776
     25777     25778     25777     25779     25778     25779     25780     25781
     25780     25782     25781     25782     25783     25784     25783     25785
     25784     25785     25786     25787     25786     25788     25787     25788
     25789     25790     25789     25791     25790     25791     25792     25793
     25792     25794     25793     25794     25795     25796     25795     25797
     25796     25797     25798     25799     25798     25800     25799     25800
     25801     25802     25801     25803     25802     25803     25804     25805
     25804     25806     25805     25806     25807     25808     25807     25809
     25808     25809     25810     25811     25810     25812     25811     25812
     25813     25814     25813     25815     25814     25815     25816     25817
     25816     25818     25817     25818     25819     25820     25819     25821
     25820     25821     25822     25823     25822     25824     25823     25824
     25825     25826     25825     25827     25826     25827     25828     25829
     25828     25830     25829     25830     25831     25832     25831     25833
     25832     25833     25834     25835     25834     25836     25835     25836
     25837     25838     25837     25839     25838     25839     25840     25841
     25840     25842     25841     25842     25843     25844     25843     25845
     25844     25845     25846     25847     25846     25848     25847     25848
     25849     25850     25849     25851     25850     25851     25852     25853
     25852     25854     25853     25854     25855     25856     25855     25857
     25856     25857     25858     25859     25858     25860     25859     25860
     25861     25862     25861     25863     25862     25863     25864     25865
     25864     25866     25865     25866     25867     25868     25867     25869
     25868     25869     25870     25871     25870     25872     25871     25872
     25873     25874     25873     25875     25874     25875     25876     25877
     25876     25878     25877     25878     25879     25880     25879     25881
     25880     25881     25882     25883     25882     25884     25883     25884
     25885     25886     25885     25887     25886     25887     25888     25889
     25888     25890     25889     25890     25891     25892     25891     25893
     25892     25893     25894     25895     25894     25896     25895     25896
     25897     25898     25897     25899     25898     25899     25900     25901
     25900     25902     25901     25902     25903     25904     25903     25905
     25904     25905     25906     25907     25906     25908     25907     25908
     25909     25910     25909     25911     25910     25911     25912     25913
     25912     25914     25913     25914     25915     25916     25915     25917
     25916     25917     25918     25919     25918     25920     25919     25920
     25921     25922     25921     25923     25922     25923     25924     25925
     25924     25926     25925     25926     25927     25928     25927     25929
     25928     25929     25930     25931     25930     25932     25931     25932
     25933     25934     25933     25935     25934     25935     25936     25937
     25936     25938     25937     25938     25939     25940     25939     25941
     25940     25941     25942     25943     25942     25944     25943     25944
     25945     25946     25945     25947     25946     25947     25948     25949
     25948     25950     25949     25950     25951     25952     25951     25953
     25952     25953     25954     25955     25954     25956     25955     25956
     25957     25958     25957     25959     25958     25959     25960     25961
     25960     25962     25961     25962     25963     25964     25963     25965
     25964     25965     25966     25967     25966     25968     25967     25968
     25969     25970     25969     25971     25970     25971     25972     25973
     25972     25974     25973     25974     25975     25976     25975     25977
     25976     25977     25978     25979     25978     25980     25979     25980
     25981     25982     25981     25983     25982     25983     25984     25985
     25984     25986     25985     25986     25987     25988     25987     25989
     25988     25989     25990     25991     25990     25992     25991     25992
     25993     25994     25993     25995     25994     25995     25996     25997
     25996     25998     25997     25998     25999     26000     25999     26001
     26000     26001     26002     26003     26002     26004     26003     26004
     26005     26006     26005     26007     26006     26007     26008     26009
     26008     26010     26009     26010     26011     26012     26011     26013
     26012     26013     26014     26015     26014     26016     26015     26016
     26017     26018     26017     26019     26018     26019     26020     26021
     26020     26022     26021     26022     26023     26024     26023     26025
     26024     26025     26026     26027     26026     26028     26027     26028
     26029     26030     26029     26031     26030     26031     26032     26033
     26032     26034     26033     26034     26035     26036     26035     26037
     26036     26037     26038     26039     26038     26040     26039     26040
     26041     26042     26041     26043     26042     26043     26044     26045
     26044     26046     26045     26046     26047     26048     26047     26049
     26048     26049     26050     26051     26050     26052     26051     26052
     26053     26054     26053     26055     26054     26055     26056     26057
     26056     26058     26057     26058     26059     26060     26059     26061
     26060     26061     26062     26063     26062     26064     26063     26064
     26065     26066     26065     26067     26066     26067     26068     26069
     26068     26070     26069     26070     26071     26072     26071     26073
     26072     26073     26074     26075     26074     26076     26075     26076
     26077     26078     26077     26079     26078     26079     26080     26081
     26080     26082     26081     26082     26083     26084     26083     26085
     26084     26085     26086     26087     26086     26088     26087     26088
     26089     26090     26089     26091     26090     26091     26092     26093
     26092     26094     26093     26094     26095     26096     26095     26097
     26096     26097     26098     26099     26098     26100     26099     26100
     26101     26102     26101     26103     26102     26103     26104     26105
     26104     26106     26105     26106     26107     26108     26107     26109
     26108     26109     26110     26111     26110     26112     26111     26112
     26113     26114     26113     26115     26114     26115     26116     26117
     26116     26118     26117     26118     26119     26120     26119     26121
     26120     26121     26122     26123     26122     26124     26123     26124
     26125     26126     26125     26127     26126     26127     26128     26129
     26128     26130     26129     26130     26131     26132     26131     26133
     26132     26133     26134     26135     26134     26136     26135     26136
     26137     26138     26137     26139     26138     26139     26140     26141
     26140     26142     26141     26142     26143     26144     26143     26145
     26144     26145     26146     26147     26146     26148     26147     26148
     26149     26150     26149     26151     26150     26151     26152     26153
     26152     26154     26153     26154     26155     26156     26155     26157
     26156     26157     26158     26159     26158     26160     26159     26160
     26161     26162     26161     26163     26162     26163     26164     26165
     26164     26166     26165     26166     26167     26168     26167     26169
     26168     26169     26170     26171     26170     26172     26171     26172
     26173     26174     26173     26175     26174     26175     26176     26177
     26176     26178     26177     26178     26179     26180     26179     26181
     26180     26181     26182     26183     26182     26184     26183     26184
     26185     26186     26185     26187     26186     26187     26188     26189
     26188     26190     26189     26190     26191     26192     26191     26193
     26192     26193     26194     26195     26194     26196     26195     26196
     26197     26198     26197     26199     26198     26199     26200     26201
     26200     26202     26201     26202     26203     26204     26203     26205
     26204     26205     26206     26207     26206     26208     26207     26208
     26209     26210     26209     26211     26210     26211     26212     26213
     26212     26214     26213     26214     26215     26216     26215     26217
     26216     26217     26218     26219     26218     26220     26219     26220
     26221     26222     26221     26223     26222     26223     26224     26225
     26224     26226     26225     26226     26227     26228     26227     26229
     26228     26229     26230     26231     26230     26232     26231     26232
     26233     26234     26233     26235     26234     26235     26236     26237
     26236     26238     26237     26238     26239     26240     26239     26241
     26240     26241     26242     26243     26242     26244     26243     26244
     26245     26246     26245     26247     26246     26247     26248     26249
     26248     26250     26249     26250     26251     26252     26251     26253
     26252     26253     26254     26255     26254     26256     26255     26256
     26257     26258     26257     26259     26258     26259     26260     26261
     26260     26262     26261     26262     26263     26264     26263     26265
     26264     26265     26266     26267     26266     26268     26267     26268
     26269     26270     26269     26271     26270     26271     26272     26273
     26272     26274     26273     26274     26275     26276     26275     26277
     26276     26277     26278     26279     26278     26280     26279     26280
     26281     26282     26281     26283     26282     26283     26284     26285
     26284     26286     26285     26286     26287     26288     26287     26289
     26288     26289     26290     26291     26290     26292     26291     26292
     26293     26294     26293     26295     26294     26295     26296     26297
     26296     26298     26297     26298     26299     26300     26299     26301
     26300     26301     26302     26303     26302     26304     26303     26304
     26305     26306     26305     26307     26306     26307     26308     26309
     26308     26310     26309     26310     26311     26312     26311     26313
     26312     26313     26314     26315     26314     26316     26315     26316
     26317     26318     26317     26319     26318     26319     26320     26321
     26320     26322     26321     26322     26323     26324     26323     26325
     26324     26325     26326     26327     26326     26328     26327     26328
     26329     26330     26329     26331     26330     26331     26332     26333
     26332     26334     26333     26334     26335     26336     26335     26337
     26336     26337     26338     26339     26338     26340     26339     26340
     26341     26342     26341     26343     26342     26343     26344     26345
     26344     26346     26345     26346     26347     26348     26347     26349
     26348     26349     26350     26351     26350     26352     26351     26352
     26353     26354     26353     26355     26354     26355     26356     26357
     26356     26358     26357     26358     26359     26360     26359     26361
     26360     26361     26362     26363     26362     26364     26363     26364
     26365     26366     26365     26367     26366     26367     26368     26369
     26368     26370     26369     26370     26371     26372     26371     26373
     26372     26373     26374     26375     26374     26376     26375     26376
     26377     26378     26377     26379     26378     26379     26380     26381
     26380     26382     26381     26382     26383     26384     26383     26385
     26384     26385     26386     26387     26386     26388     26387     26388
     26389     26390     26389     26391     26390     26391     26392     26393
     26392     26394     26393     26394     26395     26396     26395     26397
     26396     26397     26398     26399     26398     26400     26399     26400
     26401     26402     26401     26403     26402     26403     26404     26405
     26404     26406     26405     26406     26407     26408     26407     26409
     26408     26409     26410     26411     26410     26412     26411     26412
     26413     26414     26413     26415     26414     26415     26416     26417
     26416     26418     26417     26418     26419     26420     26419     26421
     26420     26421     26422     26423     26422     26424     26423     26424
     26425     26426     26425     26427     26426     26427     26428     26429
     26428     26430     26429     26430     26431     26432     26431     26433
     26432     26433     26434     26435     26434     26436     26435     26436
     26437     26438     26437     26439     26438     26439     26440     26441
     26440     26442     26441     26442     26443     26444     26443     26445
     26444     26445     26446     26447     26446     26448     26447     26448
     26449     26450     26449     26451     26450     26451     26452     26453
     26452     26454     26453     26454     26455     26456     26455     26457
     26456     26457     26458     26459     26458     26460     26459     26460
     26461     26462     26461     26463     26462     26463     26464     26465
     26464     26466     26465     26466     26467     26468     26467     26469
     26468     26469     26470     26471     26470     26472     26471     26472
     26473     26474     26473     26475     26474     26475     26476     26477
     26476     26478     26477     26478     26479     26480     26479     26481
     26480     26481     26482     26483     26482     26484     26483     26484
     26485     26486     26485     26487     26486     26487     26488     26489
     26488     26490     26489     26490     26491     26492     26491     26493
     26492     26493     26494     26495     26494     26496     26495     26496
     26497     26498     26497     26499     26498     26499     26500     26501
     26500     26502     26501     26502     26503     26504     26503     26505
     26504     26505     26506     26507     26506     26508     26507     26508
     26509     26510     26509     26511     26510     26511     26512     26513
     26512     26514     26513     26514     26515     26516     26515     26517
     26516     26517     26518     26519     26518     26520     26519     26520
     26521     26522     26521     26523     26522     26523     26524     26525
     26524     26526     26525     26526     26527     26528     26527     26529
     26528     26529     26530     26531     26530     26532     26531     26532
     26533     26534     26533     26535     26534     26535     26536     26537
     26536     26538     26537     26538     26539     26540     26539     26541
     26540     26541     26542     26543     26542     26544     26543     26544
     26545     26546     26545     26547     26546     26547     26548     26549
     26548     26550     26549     26550     26551     26552     26551     26553
     26552     26553     26554     26555     26554     26556     26555     26556
     26557     26558     26557     26559     26558     26559     26560     26561
     26560     26562     26561     26562     26563     26564     26563     26565
     26564     26565     26566     26567     26566     26568     26567     26568
     26569     26570     26569     26571     26570     26571     26572     26573
     26572     26574     26573     26574     26575     26576     26575     26577
     26576     26577     26578     26579     26578     26580     26579     26580
     26581     26582     26581     26583     26582     26583     26584     26585
     26584     26586     26585     26586     26587     26588     26587     26589
     26588     26589     26590     26591     26590     26592     26591     26592
     26593     26594     26593     26595     26594     26595     26596     26597
     26596     26598     26597     26598     26599     26600     26599     26601
     26600     26601     26602     26603     26602     26604     26603     26604
     26605     26606     26605     26607     26606     26607     26608     26609
     26608     26610     26609     26610     26611     26612     26611     26613
     26612     26613     26614     26615     26614     26616     26615     26616
     26617     26618     26617     26619     26618     26619     26620     26621
     26620     26622     26621     26622     26623     26624     26623     26625
     26624     26625     26626     26627     26626     26628     26627     26628
     26629     26630     26629     26631     26630     26631     26632     26633
     26632     26634     26633     26634     26635     26636     26635     26637
     26636     26637     26638     26639     26638     26640     26639     26640
     26641     26642     26641     26643     26642     26643     26644     26645
     26644     26646     26645     26646     26647     26648     26647     26649
     26648     26649     26650     26651     26650     26652     26651     26652
     26653     26654     26653     26655     26654     26655     26656     26657
     26656     26658     26657     26658     26659     26660     26659     26661
     26660     26661     26662     26663     26662     26664     26663     26664
     26665     26666     26665     26667     26666     26667     26668     26669
     26668     26670     26669     26670     26671     26672     26671     26673
     26672     26673     26674     26675     26674     26676     26675     26676
     26677     26678     26677     26679     26678     26679     26680     26681
     26680     26682     26681     26682     26683     26684     26683     26685
     26684     26685     26686     26687     26686     26688     26687     26688
     26689     26690     26689     26691     26690     26691     26692     26693
     26692     26694     26693     26694     26695     26696     26695     26697
     26696     26697     26698     26699     26698     26700     26699     26700
     26701     26702     26701     26703     26702     26703     26704     26705
     26704     26706     26705     26706     26707     26708     26707     26709
     26708     26709     26710     26711     26710     26712     26711     26712
     26713     26714     26713     26715     26714     26715     26716     26717
     26716     26718     26717     26718     26719     26720     26719     26721
     26720     26721     26722     26723     26722     26724     26723     26724
     26725     26726     26725     26727     26726     26727     26728     26729
     26728     26730     26729     26730     26731     26732     26731     26733
     26732     26733     26734     26735     26734     26736     26735     26736
     26737     26738     26737     26739     26738     26739     26740     26741
     26740     26742     26741     26742     26743     26744     26743     26745
     26744     26745     26746     26747     26746     26748     26747     26748
     26749     26750     26749     26751     26750     26751     26752     26753
     26752     26754     26753     26754     26755     26756     26755     26757
     26756     26757     26758     26759     26758     26760     26759     26760
     26761     26762     26761     26763     26762     26763     26764     26765
     26764     26766     26765     26766     26767     26768     26767     26769
     26768     26769     26770     26771     26770     26772     26771     26772
     26773     26774     26773     26775     26774     26775     26776     26777
     26776     26778     26777     26778     26779     26780     26779     26781
     26780     26781     26782     26783     26782     26784     26783     26784
     26785     26786     26785     26787     26786     26787     26788     26789
     26788     26790     26789     26790     26791     26792     26791     26793
     26792     26793     26794     26795     26794     26796     26795     26796
     26797     26798     26797     26799     26798     26799     26800     26801
     26800     26802     26801     26802     26803     26804     26803     26805
     26804     26805     26806     26807     26806     26808     26807     26808
     26809     26810     26809     26811     26810     26811     26812     26813
     26812     26814     26813     26814     26815     26816     26815     26817
     26816     26817     26818     26819     26818     26820     26819     26820
     26821     26822     26821     26823     26822     26823     26824     26825
     26824     26826     26825     26826     26827     26828     26827     26829
     26828     26829     26830     26831     26830     26832     26831     26832
     26833     26834     26833     26835     26834     26835     26836     26837
     26836     26838     26837     26838     26839     26840     26839     26841
     26840     26841     26842     26843     26842     26844     26843     26844
     26845     26846     26845     26847     26846     26847     26848     26849
     26848     26850     26849     26850     26851     26852     26851     26853
     26852     26853     26854     26855     26854     26856     26855     26856
     26857     26858     26857     26859     26858     26859     26860     26861
     26860     26862     26861     26862     26863     26864     26863     26865
     26864     26865     26866     26867     26866     26868     26867     26868
     26869     26870     26869     26871     26870     26871     26872     26873
     26872     26874     26873     26874     26875     26876     26875     26877
     26876     26877     26878     26879     26878     26880     26879     26880
     26881     26882     26881     26883     26882     26883     26884     26885
     26884     26886     26885     26886     26887     26888     26887     26889
     26888     26889     26890     26891     26890     26892     26891     26892
     26893     26894     26893     26895     26894     26895     26896     26897
     26896     26898     26897     26898     26899     26900     26899     26901
     26900     26901     26902     26903     26902     26904     26903     26904
     26905     26906     26905     26907     26906     26907     26908     26909
     26908     26910     26909     26910     26911     26912     26911     26913
     26912     26913     26914     26915     26914     26916     26915     26916
     26917     26918     26917     26919     26918     26919     26920     26921
     26920     26922     26921     26922     26923     26924     26923     26925
     26924     26925     26926     26927     26926     26928     26927     26928
     26929     26930     26929     26931     26930     26931     26932     26933
     26932     26934     26933     26934     26935     26936     26935     26937
     26936     26937     26938     26939     26938     26940     26939     26940
     26941     26942     26941     26943     26942     26943     26944     26945
     26944     26946     26945     26946     26947     26948     26947     26949
     26948     26949     26950     26951     26950     26952     26951     26952
     26953     26954     26953     26955     26954     26955     26956     26957
     26956     26958     26957     26958     26959     26960     26959     26961
     26960     26961     26962     26963     26962     26964     26963     26964
     26965     26966     26965     26967     26966     26967     26968     26969
     26968     26970     26969     26970     26971     26972     26971     26973
     26972     26973     26974     26975     26974     26976     26975     26976
     26977     26978     26977     26979     26978     26979     26980     26981
     26980     26982     26981     26982     26983     26984     26983     26985
     26984     26985     26986     26987     26986     26988     26987     26988
     26989     26990     26989     26991     26990     26991     26992     26993
     26992     26994     26993     26994     26995     26996     26995     26997
     26996     26997     26998     26999     26998     27000     26999     27000
     27001     27002     27001     27003     27002     27003     27004     27005
     27004     27006     27005     27006     27007     27008     27007     27009
     27008     27009     27010     27011     27010     27012     27011     27012
     27013     27014     27013     27015     27014     27015     27016     27017
     27016     27018     27017     27018     27019     27020     27019     27021
     27020     27021     27022     27023     27022     27024     27023     27024
     27025     27026     27025     27027     27026     27027     27028     27029
     27028     27030     27029     27030     27031     27032     27031     27033
     27032     27033     27034     27035     27034     27036     27035     27036
     27037     27038     27037     27039     27038     27039     27040     27041
     27040     27042     27041     27042     27043     27044     27043     27045
     27044     27045     27046     27047     27046     27048     27047     27048
     27049     27050     27049     27051     27050     27051     27052     27053
     27052     27054     27053     27054     27055     27056     27055     27057
     27056     27057     27058     27059     27058     27060     27059     27060
     27061     27062     27061     27063     27062     27063     27064     27065
     27064     27066     27065     27066     27067     27068     27067     27069
     27068     27069     27070     27071     27070     27072     27071     27072
     27073     27074     27073     27075     27074     27075     27076     27077
     27076     27078     27077     27078     27079     27080     27079     27081
     27080     27081     27082     27083     27082     27084     27083     27084
     27085     27086     27085     27087     27086     27087     27088     27089
     27088     27090     27089     27090     27091     27092     27091     27093
     27092     27093     27094     27095     27094     27096     27095     27096
     27097     27098     27097     27099     27098     27099     27100     27101
     27100     27102     27101     27102     27103     27104     27103     27105
     27104     27105     27106     27107     27106     27108     27107     27108
     27109     27110     27109     27111     27110     27111     27112     27113
     27112     27114     27113     27114     27115     27116     27115     27117
     27116     27117     27118     27119     27118     27120     27119     27120
     27121     27122     27121     27123     27122     27123     27124     27125
     27124     27126     27125     27126     27127     27128     27127     27129
     27128     27129     27130     27131     27130     27132     27131     27132
     27133     27134     27133     27135     27134     27135     27136     27137
     27136     27138     27137     27138     27139     27140     27139     27141
     27140     27141     27142     27143     27142     27144     27143     27144
     27145     27146     27145     27147     27146     27147     27148     27149
     27148     27150     27149     27150     27151     27152     27151     27153
     27152     27153     27154     27155     27154     27156     27155     27156
     27157     27158     27157     27159     27158     27159     27160     27161
     27160     27162     27161     27162     27163     27164     27163     27165
     27164     27165     27166     27167     27166     27168     27167     27168
     27169     27170     27169     27171     27170     27171     27172     27173
     27172     27174     27173     27174     27175     27176     27175     27177
     27176     27177     27178     27179     27178     27180     27179     27180
     27181     27182     27181     27183     27182     27183     27184     27185
     27184     27186     27185     27186     27187     27188     27187     27189
     27188     27189     27190     27191     27190     27192     27191     27192
     27193     27194     27193     27195     27194     27195     27196     27197
     27196     27198     27197     27198     27199     27200     27199     27201
     27200     27201     27202     27203     27202     27204     27203     27204
     27205     27206     27205     27207     27206     27207     27208     27209
     27208     27210     27209     27210     27211     27212     27211     27213
     27212     27213     27214     27215     27214     27216     27215     27216
     27217     27218     27217     27219     27218     27219     27220     27221
     27220     27222     27221     27222     27223     27224     27223     27225
     27224     27225     27226     27227     27226     27228     27227     27228
     27229     27230     27229     27231     27230     27231     27232     27233
     27232     27234     27233     27234     27235     27236     27235     27237
     27236     27237     27238     27239     27238     27240     27239     27240
     27241     27242     27241     27243     27242     27243     27244     27245
     27244     27246     27245     27246     27247     27248     27247     27249
     27248     27249     27250     27251     27250     27252     27251     27252
     27253     27254     27253     27255     27254     27255     27256     27257
     27256     27258     27257     27258     27259     27260     27259     27261
     27260     27261     27262     27263     27262     27264     27263     27264
     27265     27266     27265     27267     27266     27267     27268     27269
     27268     27270     27269     27270     27271     27272     27271     27273
     27272     27273     27274     27275     27274     27276     27275     27276
     27277     27278     27277     27279     27278     27279     27280     27281
     27280     27282     27281     27282     27283     27284     27283     27285
     27284     27285     27286     27287     27286     27288     27287     27288
     27289     27290     27289     27291     27290     27291     27292     27293
     27292     27294     27293     27294     27295     27296     27295     27297
     27296     27297     27298     27299     27298     27300     27299     27300
     27301     27302     27301     27303     27302     27303     27304     27305
     27304     27306     27305     27306     27307     27308     27307     27309
     27308     27309     27310     27311     27310     27312     27311     27312
     27313     27314     27313     27315     27314     27315     27316     27317
     27316     27318     27317     27318     27319     27320     27319     27321
     27320     27321     27322     27323     27322     27324     27323     27324
     27325     27326     27325     27327     27326     27327     27328     27329
     27328     27330     27329     27330     27331     27332     27331     27333
     27332     27333     27334     27335     27334     27336     27335     27336
     27337     27338     27337     27339     27338     27339     27340     27341
     27340     27342     27341     27342     27343     27344     27343     27345
     27344     27345     27346     27347     27346     27348     27347     27348
     27349     27350     27349     27351     27350     27351     27352     27353
     27352     27354     27353     27354     27355     27356     27355     27357
     27356     27357     27358     27359     27358     27360     27359     27360
     27361     27362     27361     27363     27362     27363     27364     27365
     27364     27366     27365     27366     27367     27368     27367     27369
     27368     27369     27370     27371     27370     27372     27371     27372
     27373     27374     27373     27375     27374     27375     27376     27377
     27376     27378     27377     27378     27379     27380     27379     27381
     27380     27381     27382     27383     27382     27384     27383     27384
     27385     27386     27385     27387     27386     27387     27388     27389
     27388     27390     27389     27390     27391     27392     27391     27393
     27392     27393     27394     27395     27394     27396     27395     27396
     27397     27398     27397     27399     27398     27399     27400     27401
     27400     27402     27401     27402     27403     27404     27403     27405
     27404     27405     27406     27407     27406     27408     27407     27408
     27409     27410     27409     27411     27410     27411     27412     27413
     27412     27414     27413     27414     27415     27416     27415     27417
     27416     27417     27418     27419     27418     27420     27419     27420
     27421     27422     27421     27423     27422     27423     27424     27425
     27424     27426     27425     27426     27427     27428     27427     27429
     27428     27429     27430     27431     27430     27432     27431     27432
     27433     27434     27433     27435     27434     27435     27436     27437
     27436     27438     27437     27438     27439     27440     27439     27441
     27440     27441     27442     27443     27442     27444     27443     27444
     27445     27446     27445     27447     27446     27447     27448     27449
     27448     27450     27449     27450     27451     27452     27451     27453
     27452     27453     27454     27455     27454     27456     27455     27456
     27457     27458     27457     27459     27458     27459     27460     27461
     27460     27462     27461     27462     27463     27464     27463     27465
     27464     27465     27466     27467     27466     27468     27467     27468
     27469     27470     27469     27471     27470     27471     27472     27473
     27472     27474     27473     27474     27475     27476     27475     27477
     27476     27477     27478     27479     27478     27480     27479     27480
     27481     27482     27481     27483     27482     27483     27484     27485
     27484     27486     27485     27486     27487     27488     27487     27489
     27488     27489     27490     27491     27490     27492     27491     27492
     27493     27494     27493     27495     27494     27495     27496     27497
     27496     27498     27497     27498     27499     27500     27499     27501
     27500     27501     27502     27503     27502     27504     27503     27504
     27505     27506     27505     27507     27506     27507     27508     27509
     27508     27510     27509     27510     27511     27512     27511     27513
     27512     27513     27514     27515     27514     27516     27515     27516
     27517     27518     27517     27519     27518     27519     27520     27521
     27520     27522     27521     27522     27523     27524     27523     27525
     27524     27525     27526     27527     27526     27528     27527     27528
     27529     27530     27529     27531     27530     27531     27532     27533
     27532     27534     27533     27534     27535     27536     27535     27537
     27536     27537     27538     27539     27538     27540     27539     27540
     27541     27542     27541     27543     27542     27543     27544     27545
     27544     27546     27545     27546     27547     27548     27547     27549
     27548     27549     27550     27551     27550     27552     27551     27552
     27553     27554     27553     27555     27554     27555     27556     27557
     27556     27558     27557     27558     27559     27560     27559     27561
     27560     27561     27562     27563     27562     27564     27563     27564
     27565     27566     27565     27567     27566     27567     27568     27569
     27568     27570     27569     27570     27571     27572     27571     27573
     27572     27573     27574     27575     27574     27576     27575     27576
     27577     27578     27577     27579     27578     27579     27580     27581
     27580     27582     27581     27582     27583     27584     27583     27585
     27584     27585     27586     27587     27586     27588     27587     27588
     27589     27590     27589     27591     27590     27591     27592     27593
     27592     27594     27593     27594     27595     27596     27595     27597
     27596     27597     27598     27599     27598     27600     27599     27600
     27601     27602     27601     27603     27602     27603     27604     27605
     27604     27606     27605     27606     27607     27608     27607     27609
     27608     27609     27610     27611     27610     27612     27611     27612
     27613     27614     27613     27615     27614     27615     27616     27617
     27616     27618     27617     27618     27619     27620     27619     27621
     27620     27621     27622     27623     27622     27624     27623     27624
     27625     27626     27625     27627     27626     27627     27628     27629
     27628     27630     27629     27630     27631     27632     27631     27633
     27632     27633     27634     27635     27634     27636     27635     27636
     27637     27638     27637     27639     27638     27639     27640     27641
     27640     27642     27641     27642     27643     27644     27643     27645
     27644     27645     27646     27647     27646     27648     27647     27648
     27649     27650     27649     27651     27650     27651     27652     27653
     27652     27654     27653     27654     27655     27656     27655     27657
     27656     27657     27658     27659     27658     27660     27659     27660
     27661     27662     27661     27663     27662     27663     27664     27665
     27664     27666     27665     27666     27667     27668     27667     27669
     27668     27669     27670     27671     27670     27672     27671     27672
     27673     27674     27673     27675     27674     27675     27676     27677
     27676     27678     27677     27678     27679     27680     27679     27681
     27680     27681     27682     27683     27682     27684     27683     27684
     27685     27686     27685     27687     27686     27687     27688     27689
     27688     27690     27689     27690     27691     27692     27691     27693
     27692     27693     27694     27695     27694     27696     27695     27696
     27697     27698     27697     27699     27698     27699     27700     27701
     27700     27702     27701     27702     27703     27704     27703     27705
     27704     27705     27706     27707     27706     27708     27707     27708
     27709     27710     27709     27711     27710     27711     27712     27713
     27712     27714     27713     27714     27715     27716     27715     27717
     27716     27717     27718     27719     27718     27720     27719     27720
     27721     27722     27721     27723     27722     27723     27724     27725
     27724     27726     27725     27726     27727     27728     27727     27729
     27728     27729     27730     27731     27730     27732     27731     27732
     27733     27734     27733     27735     27734     27735     27736     27737
     27736     27738     27737     27738     27739     27740     27739     27741
     27740     27741     27742     27743     27742     27744     27743     27744
     27745     27746     27745     27747     27746     27747     27748     27749
     27748     27750     27749     27750     27751     27752     27751     27753
     27752     27753     27754     27755     27754     27756     27755     27756
     27757     27758     27757     27759     27758     27759     27760     27761
     27760     27762     27761     27762     27763     27764     27763     27765
     27764     27765     27766     27767     27766     27768     27767     27768
     27769     27770     27769     27771     27770     27771     27772     27773
     27772     27774     27773     27774     27775     27776     27775     27777
     27776     27777     27778     27779     27778     27780     27779     27780
     27781     27782     27781     27783     27782     27783     27784     27785
     27784     27786     27785     27786     27787     27788     27787     27789
     27788     27789     27790     27791     27790     27792     27791     27792
     27793     27794     27793     27795     27794     27795     27796     27797
     27796     27798     27797     27798     27799     27800     27799     27801
     27800     27801     27802     27803     27802     27804     27803     27804
     27805     27806     27805     27807     27806     27807     27808     27809
     27808     27810     27809     27810     27811     27812     27811     27813
     27812     27813     27814     27815     27814     27816     27815     27816
     27817     27818     27817     27819     27818     27819     27820     27821
     27820     27822     27821     27822     27823     27824     27823     27825
     27824     27825     27826     27827     27826     27828     27827     27828
     27829     27830     27829     27831     27830     27831     27832     27833
     27832     27834     27833     27834     27835     27836     27835     27837
     27836     27837     27838     27839     27838     27840     27839     27840
     27841     27842     27841     27843     27842     27843     27844     27845
     27844     27846     27845     27846     27847     27848     27847     27849
     27848     27849     27850     27851     27850     27852     27851     27852
     27853     27854     27853     27855     27854     27855     27856     27857
     27856     27858     27857     27858     27859     27860     27859     27861
     27860     27861     27862     27863     27862     27864     27863     27864
     27865     27866     27865     27867     27866     27867     27868     27869
     27868     27870     27869     27870     27871     27872     27871     27873
     27872     27873     27874     27875     27874     27876     27875     27876
     27877     27878     27877     27879     27878     27879     27880     27881
     27880     27882     27881     27882     27883     27884     27883     27885
     27884     27885     27886     27887     27886     27888     27887     27888
     27889     27890     27889     27891     27890     27891     27892     27893
     27892     27894     27893     27894     27895     27896     27895     27897
     27896     27897     27898     27899     27898     27900     27899     27900
     27901     27902     27901     27903     27902     27903     27904     27905
     27904     27906     27905     27906     27907     27908     27907     27909
     27908     27909     27910     27911     27910     27912     27911     27912
     27913     27914     27913     27915     27914     27915     27916     27917
     27916     27918     27917     27918     27919     27920     27919     27921
     27920     27921     27922     27923     27922     27924     27923     27924
     27925     27926     27925     27927     27926     27927     27928     27929
     27928     27930     27929     27930     27931     27932     27931     27933
     27932     27933     27934     27935     27934     27936     27935     27936
     27937     27938     27937     27939     27938     27939     27940     27941
     27940     27942     27941     27942     27943     27944     27943     27945
     27944     27945     27946     27947     27946     27948     27947     27948
     27949     27950     27949     27951     27950     27951     27952     27953
     27952     27954     27953     27954     27955     27956     27955     27957
     27956     27957     27958     27959     27958     27960     27959     27960
     27961     27962     27961     27963     27962     27963     27964     27965
     27964     27966     27965     27966     27967     27968     27967     27969
     27968     27969     27970     27971     27970     27972     27971     27972
     27973     27974     27973     27975     27974     27975     27976     27977
     27976     27978     27977     27978     27979     27980     27979     27981
     27980     27981     27982     27983     27982     27984     27983     27984
     27985     27986     27985     27987     27986     27987     27988     27989
     27988     27990     27989     27990     27991     27992     27991     27993
     27992     27993     27994     27995     27994     27996     27995     27996
     27997     27998     27997     27999     27998     27999     28000     28001
     28000     28002     28001     28002     28003     28004     28003     28005
     28004     28005     28006     28007     28006     28008     28007     28008
     28009     28010     28009     28011     28010     28011     28012     28013
     28012     28014     28013     28014     28015     28016     28015     28017
     28016     28017     28018     28019     28018     28020     28019     28020
     28021     28022     28021     28023     28022     28023     28024     28025
     28024     28026     28025     28026     28027     28028     28027     28029
     28028     28029     28030     28031     28030     28032     28031     28032
     28033     28034     28033     28035     28034     28035     28036     28037
     28036     28038     28037     28038     28039     28040     28039     28041
     28040     28041     28042     28043     28042     28044     28043     28044
     28045     28046     28045     28047     28046     28047     28048     28049
     28048     28050     28049     28050     28051     28052     28051     28053
     28052     28053     28054     28055     28054     28056     28055     28056
     28057     28058     28057     28059     28058     28059     28060     28061
     28060     28062     28061     28062     28063     28064     28063     28065
     28064     28065     28066     28067     28066     28068     28067     28068
     28069     28070     28069     28071     28070     28071     28072     28073
     28072     28074     28073     28074     28075     28076     28075     28077
     28076     28077     28078     28079     28078     28080     28079     28080
     28081     28082     28081     28083     28082     28083     28084     28085
     28084     28086     28085     28086     28087     28088     28087     28089
     28088     28089     28090     28091     28090     28092     28091     28092
     28093     28094     28093     28095     28094     28095     28096     28097
     28096     28098     28097     28098     28099     28100     28099     28101
     28100     28101     28102     28103     28102     28104     28103     28104
     28105     28106     28105     28107     28106     28107     28108     28109
     28108     28110     28109     28110     28111     28112     28111     28113
     28112     28113     28114     28115     28114     28116     28115     28116
     28117     28118     28117     28119     28118     28119     28120     28121
     28120     28122     28121     28122     28123     28124     28123     28125
     28124     28125     28126     28127     28126     28128     28127     28128
     28129     28130     28129     28131     28130     28131     28132     28133
     28132     28134     28133     28134     28135     28136     28135     28137
     28136     28137     28138     28139     28138     28140     28139     28140
     28141     28142     28141     28143     28142     28143     28144     28145
     28144     28146     28145     28146     28147     28148     28147     28149
     28148     28149     28150     28151     28150     28152     28151     28152
     28153     28154     28153     28155     28154     28155     28156     28157
     28156     28158     28157     28158     28159     28160     28159     28161
     28160     28161     28162     28163     28162     28164     28163     28164
     28165     28166     28165     28167     28166     28167     28168     28169
     28168     28170     28169     28170     28171     28172     28171     28173
     28172     28173     28174     28175     28174     28176     28175     28176
     28177     28178     28177     28179     28178     28179     28180     28181
     28180     28182     28181     28182     28183     28184     28183     28185
     28184     28185     28186     28187     28186     28188     28187     28188
     28189     28190     28189     28191     28190     28191     28192     28193
     28192     28194     28193     28194     28195     28196     28195     28197
     28196     28197     28198     28199     28198     28200     28199     28200
     28201     28202     28201     28203     28202     28203     28204     28205
     28204     28206     28205     28206     28207     28208     28207     28209
     28208     28209     28210     28211     28210     28212     28211     28212
     28213     28214     28213     28215     28214     28215     28216     28217
     28216     28218     28217     28218     28219     28220     28219     28221
     28220     28221     28222     28223     28222     28224     28223     28224
     28225     28226     28225     28227     28226     28227     28228     28229
     28228     28230     28229     28230     28231     28232     28231     28233
     28232     28233     28234     28235     28234     28236     28235     28236
     28237     28238     28237     28239     28238     28239     28240     28241
     28240     28242     28241     28242     28243     28244     28243     28245
     28244     28245     28246     28247     28246     28248     28247     28248
     28249     28250     28249     28251     28250     28251     28252     28253
     28252     28254     28253     28254     28255     28256     28255     28257
     28256     28257     28258     28259     28258     28260     28259     28260
     28261     28262     28261     28263     28262     28263     28264     28265
     28264     28266     28265     28266     28267     28268     28267     28269
     28268     28269     28270     28271     28270     28272     28271     28272
     28273     28274     28273     28275     28274     28275     28276     28277
     28276     28278     28277     28278     28279     28280     28279     28281
     28280     28281     28282     28283     28282     28284     28283     28284
     28285     28286     28285     28287     28286     28287     28288     28289
     28288     28290     28289     28290     28291     28292     28291     28293
     28292     28293     28294     28295     28294     28296     28295     28296
     28297     28298     28297     28299     28298     28299     28300     28301
     28300     28302     28301     28302     28303     28304     28303     28305
     28304     28305     28306     28307     28306     28308     28307     28308
     28309     28310     28309     28311     28310     28311     28312     28313
     28312     28314     28313     28314     28315     28316     28315     28317
     28316     28317     28318     28319     28318     28320     28319     28320
     28321     28322     28321     28323     28322     28323     28324     28325
     28324     28326     28325     28326     28327     28328     28327     28329
     28328     28329     28330     28331     28330     28332     28331     28332
     28333     28334     28333     28335     28334     28335     28336     28337
     28336     28338     28337     28338     28339     28340     28339     28341
     28340     28341     28342     28343     28342     28344     28343     28344
     28345     28346     28345     28347     28346     28347     28348     28349
     28348     28350     28349     28350     28351     28352     28351     28353
     28352     28353     28354     28355     28354     28356     28355     28356
     28357     28358     28357     28359     28358     28359     28360     28361
     28360     28362     28361     28362     28363     28364     28363     28365
     28364     28365     28366     28367     28366     28368     28367     28368
     28369     28370     28369     28371     28370     28371     28372     28373
     28372     28374     28373     28374     28375     28376     28375     28377
     28376     28377     28378     28379     28378     28380     28379     28380
     28381     28382     28381     28383     28382     28383     28384     28385
     28384     28386     28385     28386     28387     28388     28387     28389
     28388     28389     28390     28391     28390     28392     28391     28392
     28393     28394     28393     28395     28394     28395     28396     28397
     28396     28398     28397     28398     28399     28400     28399     28401
     28400     28401     28402     28403     28402     28404     28403     28404
     28405     28406     28405     28407     28406     28407     28408     28409
     28408     28410     28409     28410     28411     28412     28411     28413
     28412     28413     28414     28415     28414     28416     28415     28416
     28417     28418     28417     28419     28418     28419     28420     28421
     28420     28422     28421     28422     28423     28424     28423     28425
     28424     28425     28426     28427     28426     28428     28427     28428
     28429     28430     28429     28431     28430     28431     28432     28433
     28432     28434     28433     28434     28435     28436     28435     28437
     28436     28437     28438     28439     28438     28440     28439     28440
     28441     28442     28441     28443     28442     28443     28444     28445
     28444     28446     28445     28446     28447     28448     28447     28449
     28448     28449     28450     28451     28450     28452     28451     28452
     28453     28454     28453     28455     28454     28455     28456     28457
     28456     28458     28457     28458     28459     28460     28459     28461
     28460     28461     28462     28463     28462     28464     28463     28464
     28465     28466     28465     28467     28466     28467     28468     28469
     28468     28470     28469     28470     28471     28472     28471     28473
     28472     28473     28474     28475     28474     28476     28475     28476
     28477     28478     28477     28479     28478     28479     28480     28481
     28480     28482     28481     28482     28483     28484     28483     28485
     28484     28485     28486     28487     28486     28488     28487     28488
     28489     28490     28489     28491     28490     28491     28492     28493
     28492     28494     28493     28494     28495     28496     28495     28497
     28496     28497     28498     28499     28498     28500     28499     28500
     28501     28502     28501     28503     28502     28503     28504     28505
     28504     28506     28505     28506     28507     28508     28507     28509
     28508     28509     28510     28511     28510     28512     28511     28512
     28513     28514     28513     28515     28514     28515     28516     28517
     28516     28518     28517     28518     28519     28520     28519     28521
     28520     28521     28522     28523     28522     28524     28523     28524
     28525     28526     28525     28527     28526     28527     28528     28529
     28528     28530     28529     28530     28531     28532     28531     28533
     28532     28533     28534     28535     28534     28536     28535     28536
     28537     28538     28537     28539     28538     28539     28540     28541
     28540     28542     28541     28542     28543     28544     28543     28545
     28544     28545     28546     28547     28546     28548     28547     28548
     28549     28550     28549     28551     28550     28551     28552     28553
     28552     28554     28553     28554     28555     28556     28555     28557
     28556     28557     28558     28559     28558     28560     28559     28560
     28561     28562     28561     28563     28562     28563     28564     28565
     28564     28566     28565     28566     28567     28568     28567     28569
     28568     28569     28570     28571     28570     28572     28571     28572
     28573     28574     28573     28575     28574     28575     28576     28577
     28576     28578     28577     28578     28579     28580     28579     28581
     28580     28581     28582     28583     28582     28584     28583     28584
     28585     28586     28585     28587     28586     28587     28588     28589
     28588     28590     28589     28590     28591     28592     28591     28593
     28592     28593     28594     28595     28594     28596     28595     28596
     28597     28598     28597     28599     28598     28599     28600     28601
     28600     28602     28601     28602     28603     28604     28603     28605
     28604     28605     28606     28607     28606     28608     28607     28608
     28609     28610     28609     28611     28610     28611     28612     28613
     28612     28614     28613     28614     28615     28616     28615     28617
     28616     28617     28618     28619     28618     28620     28619     28620
     28621     28622     28621     28623     28622     28623     28624     28625
     28624     28626     28625     28626     28627     28628     28627     28629
     28628     28629     28630     28631     28630     28632     28631     28632
     28633     28634     28633     28635     28634     28635     28636     28637
     28636     28638     28637     28638     28639     28640     28639     28641
     28640     28641     28642     28643     28642     28644     28643     28644
     28645     28646     28645     28647     28646     28647     28648     28649
     28648     28650     28649     28650     28651     28652     28651     28653
     28652     28653     28654     28655     28654     28656     28655     28656
     28657     28658     28657     28659     28658     28659     28660     28661
     28660     28662     28661     28662     28663     28664     28663     28665
     28664     28665     28666     28667     28666     28668     28667     28668
     28669     28670     28669     28671     28670     28671     28672     28673
     28672     28674     28673     28674     28675     28676     28675     28677
     28676     28677     28678     28679     28678     28680     28679     28680
     28681     28682     28681     28683     28682     28683     28684     28685
     28684     28686     28685     28686     28687     28688     28687     28689
     28688     28689     28690     28691     28690     28692     28691     28692
     28693     28694     28693     28695     28694     28695     28696     28697
     28696     28698     28697     28698     28699     28700     28699     28701
     28700     28701     28702     28703     28702     28704     28703     28704
     28705     28706     28705     28707     28706     28707     28708     28709
     28708     28710     28709     28710     28711     28712     28711     28713
     28712     28713     28714     28715     28714     28716     28715     28716
     28717     28718     28717     28719     28718     28719     28720     28721
     28720     28722     28721     28722     28723     28724     28723     28725
     28724     28725     28726     28727     28726     28728     28727     28728
     28729     28730     28729     28731     28730     28731     28732     28733
     28732     28734     28733     28734     28735     28736     28735     28737
     28736     28737     28738     28739     28738     28740     28739     28740
     28741     28742     28741     28743     28742     28743     28744     28745
     28744     28746     28745     28746     28747     28748     28747     28749
     28748     28749     28750     28751     28750     28752     28751     28752
     28753     28754     28753     28755     28754     28755     28756     28757
     28756     28758     28757     28758     28759     28760     28759     28761
     28760     28761     28762     28763     28762     28764     28763     28764
     28765     28766     28765     28767     28766     28767     28768     28769
     28768     28770     28769     28770     28771     28772     28771     28773
     28772     28773     28774     28775     28774     28776     28775     28776
     28777     28778     28777     28779     28778     28779     28780     28781
     28780     28782     28781     28782     28783     28784     28783     28785
     28784     28785     28786     28787     28786     28788     28787     28788
     28789     28790     28789     28791     28790     28791     28792     28793
     28792     28794     28793     28794     28795     28796     28795     28797
     28796     28797     28798     28799     28798     28800     28799     28800

     31200 !NTHETA: angles
         2         1         5         2         1         9         2         1        13
         5         1         9         5         1        13         9         1        13
         1         2         3         1         2         4         1         2        17
         3         2         4         3         2        17         4         2        17
         1         5         6         1         5         7         1         5         8
         6         5         7         6         5         8         7         5         8
         1         9        10         1         9        11         1         9        12
        10         9        11        10         9        12        11         9        12
         1        13        14         1        13        15         1        13        16
        14        13        15        14        13        16        15        13        16
         2        17        18         2        17        19         2        17        23
        18        17        19        18        17        23        19        17        23
        21        20        22        21        20        23        21        20        24
        22        20        23        22        20        24        23        20        24
        17        23        20        20        24        25        24        25        26
        24        25        27        24        25        28        26        25        27
        26        25        28        27        25        28        25        28        29
        25        28        30        25        28        36        29        28        30
        29        28        36        30        28        36        28        30        31
        30        31        32        30        31        33        32        31        33
        31        33        34        31        33        35        31        33        45
        34        33        35        34        33        45        35        33        45
        28        36        37        28        36        38        28        36        39
        37        36        38        37        36        39        38        36        39
        36        39        40        39        40        41        39        40        42
        41        40        42        40        42        43        40        42        44
        40        42        92        43        42        44        43        42        92
        44        42        92        33        45        46        33        45        47
        33        45        48        46        45        47        46        45        48
        47        45        48        45        48        49        45        48        50
        45        48        51        49        48        50        49        48        51
        50        48        51        48        51        52        48        51        53
        48        51        54        52        51        53        52        51        54
        53        51        54        51        54        55        51        54        56
        51        54        57        55        54        56        55        54        57
        56        54        57        54        57        58        54        57        59
        54        57        60        58        57        59        58        57        60
        59        57        60        57        60        61        57        60        62
        57        60        63        61        60        62        61        60        63
        62        60        63        60        63        64        60        63        65
        64        63        65        63        65        66        63        65        67
        66        65        67        65        67        68        65        67        69
        65        67        70        68        67        69        68        67        70
        69        67        70        67        70        71        67        70        72
        67        70        73        71        70        72        71        70        73
        72        70        73        70        73        74        70        73        75
        70        73        76        74        73        75        74        73        76
        75        73        76        73        76        77        73        76        78
        73        76        79        77        76        78        77        76        79
        78        76        79        76        79        80        76        79        81
        76        79        82        80        79        81        80        79        82
        81        79        82        79        82        83        79        82        84
        79        82        85        83        82        84        83        82        85
        84        82        85        82        85        86        82        85        87
        82        85        88        86        85        87        86        85        88
        87        85        88        85        88        89        85        88        90
        85        88        91        89        88        90        89        88        91
        90        88        91        42        92        93        42        92        94
        42        92        95        93        92        94        93        92        95
        94        92        95        92        95        96        92        95        97
        92        95        98        96        95        97        96        95        98
        97        95        98        95        98        99        95        98       100
        95        98       101        99        98       100        99        98       101
       100        98       101        98       101       102        98       101       103
        98       101       104       102       101       103       102       101       104
       103       101       104       101       104       105       101       104       106
       101       104       107       105       104       106       105       104       107
       106       104       107       104       107       108       104       107       109
       104       107       110       108       107       109       108       107       110
       109       107       110       107       110       111       107       110       112
       111       110       112       110       112       113       110       112       114
       113       112       114       112       114       115       112       114       116
       112       114       117       115       114       116       115       114       117
       116       114       117       114       117       118       114       117       119
       114       117       120       118       117       119       118       117       120
       119       117       120       117       120       121       117       120       122
       117       120       123       121       120       122       121       120       123
       122       120       123       120       123       124       120       123       125
       120       123       126       124       123       125       124       123       126
       125       123       126       123       126       127       123       126       128
       123       126       129       127       126       128       127       126       129
       128       126       129       126       129       130       126       129       131
       126       129       132       130       129       131       130       129       132
       131       129       132       129       132       133       129       132       134
       129       132       135       133       132       134       133       132       135
       134       132       135       132       135       136       132       135       137
       132       135       138       136       135       137       136       135       138
       137       135       138       140       139       143       140       139       147
       140       139       151       143       139       147       143       139       151
       147       139       151       139       140       141       139       140       142
       139       140       155       141       140       142       141       140       155
       142       140       155       139       143       144       139       143       145
       139       143       146       144       143       145       144       143       146
       145       143       146       139       147       148       139       147       149
       139       147       150       148       147       149       148       147       150
       149       147       150       139       151       152       139       151       153
       139       151       154       152       151       153       152       151       154
       153       151       154       140       155       156       140       155       157
       140       155       161       156       155       157       156       155       161
       157       155       161       159       158       160       159       158       161
       159       158       162       160       158       161       160       158       162
       161       158       162       155       161       158       158       162       163
       162       163       164       162       163       165       162       163       166
       164       163       165       164       163       166       165       163       166
       163       166       167       163       166       168       163       166       174
       167       166       168       167       166       174       168       166       174
       166       168       169       168       169       170       168       169       171
       170       169       171       169       171       172       169       171       173
       169       171       183       172       171       173       172       171       183
       173       171       183       166       174       175       166       174       176
       166       174       177       175       174       176       175       174       177
       176       174       177       174       177       178       177       178       179
       177       178       180       179       178       180       178       180       181
       178       180       182       178       180       230       181       180       182
       181       180       230       182       180       230       171       183       184
       171       183       185       171       183       186       184       183       185
       184       183       186       185       183       186       183       186       187
       183       186       188       183       186       189       187       186       188
       187       186       189       188       186       189       186       189       190
       186       189       191       186       189       192       190       189       191
       190       189       192       191       189       192       189       192       193
       189       192       194       189       192       195       193       192       194
       193       192       195       194       192       195       192       195       196
       192       195       197       192       195       198       196       195       197
       196       195       198       197       195       198       195       198       199
       195       198       200       195       198       201       199       198       200
       199       198       201       200       198       201       198       201       202
       198       201       203       202       201       203       201       203       204
       201       203       205       204       203       205       203       205       206
       203       205       207       203       205       208       206       205       207
       206       205       208       207       205       208       205       208       209
       205       208       210       205       208       211       209       208       210
       209       208       211       210       208       211       208       211       212
       208       211       213       208       211       214       212       211       213
       212       211       214       213       211       214       211       214       215
       211       214       216       211       214       217       215       214       216
       215       214       217       216       214       217       214       217       218
       214       217       219       214       217       220       218       217       219
       218       217       220       219       217       220       217       220       221
       217       220       222       217       220       223       221       220       222
       221       220       223       222       220       223       220       223       224
       220       223       225       220       223       226       224       223       225
       224       223       226       225       223       226       223       226       227
       223       226       228       223       226       229       227       226       228
       227       226       229       228       226       229       180       230       231
       180       230       232       180       230       233       231       230       232
       231       230       233       232       230       233       230       233       234
       230       233       235       230       233       236       234       233       235
       234       233       236       235       233       236       233       236       237
       233       236       238       233       236       239       237       236       238
       237       236       239       238       236       239       236       239       240
       236       239       241       236       239       242       240       239       241
       240       239       242       241       239       242       239       242       243
       239       242       244       239       242       245       243       242       244
       243       242       245       244       242       245       242       245       246
       242       245       247       242       245       248       246       245       247
       246       245       248       247       245       248       245       248       249
       245       248       250       249       248       250       248       250       251
       248       250       252       251       250       252       250       252       253
       250       252       254       250       252       255       253       252       254
       253       252       255       254       252       255       252       255       256
       252       255       257       252       255       258       256       255       257
       256       255       258       257       255       258       255       258       259
       255       258       260       255       258       261       259       258       260
       259       258       261       260       258       261       258       261       262
       258       261       263       258       261       264       262       261       263
       262       261       264       263       261       264       261       264       265
       261       264       266       261       264       267       265       264       266
       265       264       267       266       264       267       264       267       268
       264       267       269       264       267       270       268       267       269
       268       267       270       269       267       270       267       270       271
       267       270       272       267       270       273       271       270       272
       271       270       273       272       270       273       270       273       274
       270       273       275       270       273       276       274       273       275
       274       273       276       275       273       276       278       277       281
       278       277       285       278       277       289       281       277       285
       281       277       289       285       277       289       277       278       279
       277       278       280       277       278       293       279       278       280
       279       278       293       280       278       293       277       281       282
       277       281       283       277       281       284       282       281       283
       282       281       284       283       281       284       277       285       286
       277       285       287       277       285       288       286       285       287
       286       285       288       287       285       288       277       289       290
       277       289       291       277       289       292       290       289       291
       290       289       292       291       289       292       278       293       294
       278       293       295       278       293       299       294       293       295
       294       293       299       295       293       299       297       296       298
       297       296       299       297       296       300       298       296       299
       298       296       300       299       296       300       293       299       296
       296       300       301       300       301       302       300       301       303
       300       301       304       302       301       303       302       301       304
       303       301       304       301       304       305       301       304       306
       301       304       312       305       304       306       305       304       312
       306       304       312       304       306       307       306       307       308
       306       307       309       308       307       309       307       309       310
       307       309       311       307       309       321       310       309       311
       310       309       321       311       309       321       304       312       313
       304       312       314       304       312       315       313       312       314
       313       312       315       314       312       315       312       315       316
       315       316       317       315       316       318       317       316       318
       316       318       319       316       318       320       316       318       368
       319       318       320       319       318       368       320       318       368
       309       321       322       309       321       323       309       321       324
       322       321       323       322       321       324       323       321       324
       321       324       325       321       324       326       321       324       327
       325       324       326       325       324       327       326       324       327
       324       327       328       324       327       329       324       327       330
       328       327       329       328       327       330       329       327       330
       327       330       331       327       330       332       327       330       333
       331       330       332       331       330       333       332       330       333
       330       333       334       330       333       335       330       333       336
       334       333       335       334       333       336       335       333       336
       333       336       337       333       336       338       333       336       339
       337       336       338       337       336       339       338       336       339
       336       339       340       336       339       341       340       339       341
       339       341       342       339       341       343       342       341       343
       341       343       344       341       343       345       341       343       346
       344       343       345       344       343       346       345       343       346
       343       346       347       343       346       348       343       346       349
       347       346       348       347       346       349       348       346       349
       346       349       350       346       349       351       346       349       352
       350       349       351       350       349       352       351       349       352
       349       352       353       349       352       354       349       352       355
       353       352       354       353       352       355       354       352       355
       352       355       356       352       355       357       352       355       358
       356       355       357       356       355       358       357       355       358
       355       358       359       355       358       360       355       358       361
       359       358       360       359       358       361       360       358       361
       358       361       362       358       361       363       358       361       364
       362       361       363       362       361       364       363       361       364
       361       364       365       361       364       366       361       364       367
       365       364       366       365       364       367       366       364       367
       318       368       369       318       368       370       318       368       371
       369       368       370       369       368       371       370       368       371
       368       371       372       368       371       373       368       371       374
       372       371       373       372       371       374       373       371       374
       371       374       375       371       374       376       371       374       377
       375       374       376       375       374       377       376       374       377
       374       377       378       374       377       379       374       377       380
       378       377       379       378       377       380       379       377       380
       377       380       381       377       380       382       377       380       383
       381       380       382       381       380       383       382       380       383
       380       383       384       380       383       385       380       383       386
       384       383       385       384       383       386       385       383       386
       383       386       387       383       386       388       387       386       388
       386       388       389       386       388       390       389       388       390
       388       390       391       388       390       392       388       390       393
       391       390       392       391       390       393       392       390       393
       390       393       394       390       393       395       390       393       396
       394       393       395       394       393       396       395       393       396
       393       396       397       393       396       398       393       396       399
       397       396       398       397       396       399       398       396       399
       396       399       400       396       399       401       396       399       402
       400       399       401       400       399       402       401       399       402
       399       402       403       399       402       404       399       402       405
       403       402       404       403       402       405       404       402       405
       402       405       406       402       405       407       402       405       408
       406       405       407       406       405       408       407       405       408
       405       408       409       405       408       410       405       408       411
       409       408       410       409       408       411       410       408       411
       408       411       412       408       411       413       408       411       414
       412       411       413       412       411       414       413       411       414
       416       415       419       416       415       423       416       415       427
       419       415       423       419       415       427       423       415       427
       415       416       417       415       416       418       415       416       431
       417       416       418       417       416       431       418       416       431
       415       419       420       415       419       421       415       419       422
       420       419       421       420       419       422       421       419       422
       415       423       424       415       423       425       415       423       426
       424       423       425       424       423       426       425       423       426
       415       427       428       415       427       429       415       427       430
       428       427       429       428       427       430       429       427       430
       416       431       432       416       431       433       416       431       437
       432       431       433       432       431       437       433       431       437
       435       434       436       435       434       437       435       434       438
       436       434       437       436       434       438       437       434       438
       431       437       434       434       438       439       438       439       440
       438       439       441       438       439       442       440       439       441
       440       439       442       441       439       442       439       442       443
       439       442       444       439       442       450       443       442       444
       443       442       450       444       442       450       442       444       445
       444       445       446       444       445       447       446       445       447
       445       447       448       445       447       449       445       447       459
       448       447       449       448       447       459       449       447       459
       442       450       451       442       450       452       442       450       453
       451       450       452       451       450       453       452       450       453
       450       453       454       453       454       455       453       454       456
       455       454       456       454       456       457       454       456       458
       454       456       506       457       456       458       457       456       506
       458       456       506       447       459       460       447       459       461
       447       459       462       460       459       461       460       459       462
       461       459       462       459       462       463       459       462       464
       459       462       465       463       462       464       463       462       465
       464       462       465       462       465       466       462       465       467
       462       465       468       466       465       467       466       465       468
       467       465       468       465       468       469       465       468       470
       465       468       471       469       468       470       469       468       471
       470       468       471       468       471       472       468       471       473
       468       471       474       472       471       473       472       471       474
       473       471       474       471       474       475       471       474       476
       471       474       477       475       474       476       475       474       477
       476       474       477       474       477       478       474       477       479
       478       477       479       477       479       480       477       479       481
       480       479       481       479       481       482       479       481       483
       479       481       484       482       481       483       482       481       484
       483       481       484       481       484       485       481       484       486
       481       484       487       485       484       486       485       484       487
       486       484       487       484       487       488       484       487       489
       484       487       490       488       487       489       488       487       490
       489       487       490       487       490       491       487       490       492
       487       490       493       491       490       492       491       490       493
       492       490       493       490       493       494       490       493       495
       490       493       496       494       493       495       494       493       496
       495       493       496       493       496       497       493       496       498
       493       496       499       497       496       498       497       496       499
       498       496       499       496       499       500       496       499       501
       496       499       502       500       499       501       500       499       502
       501       499       502       499       502       503       499       502       504
       499       502       505       503       502       504       503       502       505
       504       502       505       456       506       507       456       506       508
       456       506       509       507       506       508       507       506       509
       508       506       509       506       509       510       506       509       511
       506       509       512       510       509       511       510       509       512
       511       509       512       509       512       513       509       512       514
       509       512       515       513       512       514       513       512       515
       514       512       515       512       515       516       512       515       517
       512       515       518       516       515       517       516       515       518
       517       515       518       515       518       519       515       518       520
       515       518       521       519       518       520       519       518       521
       520       518       521       518       521       522       518       521       523
       518       521       524       522       521       523       522       521       524
       523       521       524       521       524       525       521       524       526
       525       524       526       524       526       527       524       526       528
       527       526       528       526       528       529       526       528       530
       526       528       531       529       528       530       529       528       531
       530       528       531       528       531       532       528       531       533
       528       531       534       532       531       533       532       531       534
       533       531       534       531       534       535       531       534       536
       531       534       537       535       534       536       535       534       537
       536       534       537       534       537       538       534       537       539
       534       537       540       538       537       539       538       537       540
       539       537       540       537       540       541       537       540       542
       537       540       543       541       540       542       541       540       543
       542       540       543       540       543       544       540       543       545
       540       543       546       544       543       545       544       543       546
       545       543       546       543       546       547       543       546       548
       543       546       549       547       546       548       547       546       549
       548       546       549       546       549       550       546       549       551
       546       549       552       550       549       551       550       549       552
       551       549       552       554       553       557       554       553       561
       554       553       565       557       553       561       557       553       565
       561       553       565       553       554       555       553       554       556
       553       554       569       555       554       556       555       554       569
       556       554       569       553       557       558       553       557       559
       553       557       560       558       557       559       558       557       560
       559       557       560       553       561       562       553       561       563
       553       561       564       562       561       563       562       561       564
       563       561       564       553       565       566       553       565       567
       553       565       568       566       565       567       566       565       568
       567       565       568       554       569       570       554       569       571
       554       569       575       570       569       571       570       569       575
       571       569       575       573       572       574       573       572       575
       573       572       576       574       572       575       574       572       576
       575       572       576       569       575       572       572       576       577
       576       577       578       576       577       579       576       577       580
       578       577       579       578       577       580       579       577       580
       577       580       581       577       580       582       577       580       588
       581       580       582       581       580       588       582       580       588
       580       582       583       582       583       584       582       583       585
       584       583       585       583       585       586       583       585       587
       583       585       597       586       585       587       586       585       597
       587       585       597       580       588       589       580       588       590
       580       588       591       589       588       590       589       588       591
       590       588       591       588       591       592       591       592       593
       591       592       594       593       592       594       592       594       595
       592       594       596       592       594       644       595       594       596
       595       594       644       596       594       644       585       597       598
       585       597       599       585       597       600       598       597       599
       598       597       600       599       597       600       597       600       601
       597       600       602       597       600       603       601       600       602
       601       600       603       602       600       603       600       603       604
       600       603       605       600       603       606       604       603       605
       604       603       606       605       603       606       603       606       607
       603       606       608       603       606       609       607       606       608
       607       606       609       608       606       609       606       609       610
       606       609       611       606       609       612       610       609       611
       610       609       612       611       609       612       609       612       613
       609       612       614       609       612       615       613       612       614
       613       612       615       614       612       615       612       615       616
       612       615       617       616       615       617       615       617       618
       615       617       619       618       617       619       617       619       620
       617       619       621       617       619       622       620       619       621
       620       619       622       621       619       622       619       622       623
       619       622       624       619       622       625       623       622       624
       623       622       625       624       622       625       622       625       626
       622       625       627       622       625       628       626       625       627
       626       625       628       627       625       628       625       628       629
       625       628       630       625       628       631       629       628       630
       629       628       631       630       628       631       628       631       632
       628       631       633       628       631       634       632       631       633
       632       631       634       633       631       634       631       634       635
       631       634       636       631       634       637       635       634       636
       635       634       637       636       634       637       634       637       638
       634       637       639       634       637       640       638       637       639
       638       637       640       639       637       640       637       640       641
       637       640       642       637       640       643       641       640       642
       641       640       643       642       640       643       594       644       645
       594       644       646       594       644       647       645       644       646
       645       644       647       646       644       647       644       647       648
       644       647       649       644       647       650       648       647       649
       648       647       650       649       647       650       647       650       651
       647       650       652       647       650       653       651       650       652
       651       650       653       652       650       653       650       653       654
       650       653       655       650       653       656       654       653       655
       654       653       656       655       653       656       653       656       657
       653       656       658       653       656       659       657       656       658
       657       656       659       658       656       659       656       659       660
       656       659       661       656       659       662       660       659       661
       660       659       662       661       659       662       659       662       663
       659       662       664       663       662       664       662       664       665
       662       664       666       665       664       666       664       666       667
       664       666       668       664       666       669       667       666       668
       667       666       669       668       666       669       666       669       670
       666       669       671       666       669       672       670       669       671
       670       669       672       671       669       672       669       672       673
       669       672       674       669       672       675       673       672       674
       673       672       675       674       672       675       672       675       676
       672       675       677       672       675       678       676       675       677
       676       675       678       677       675       678       675       678       679
       675       678       680       675       678       681       679       678       680
       679       678       681       680       678       681       678       681       682
       678       681       683       678       681       684       682       681       683
       682       681       684       683       681       684       681       684       685
       681       684       686       681       684       687       685       684       686
       685       684       687       686       684       687       684       687       688
       684       687       689       684       687       690       688       687       689
       688       687       690       689       687       690       692       691       695
       692       691       699       692       691       703       695       691       699
       695       691       703       699       691       703       691       692       693
       691       692       694       691       692       707       693       692       694
       693       692       707       694       692       707       691       695       696
       691       695       697       691       695       698       696       695       697
       696       695       698       697       695       698       691       699       700
       691       699       701       691       699       702       700       699       701
       700       699       702       701       699       702       691       703       704
       691       703       705       691       703       706       704       703       705
       704       703       706       705       703       706       692       707       708
       692       707       709       692       707       713       708       707       709
       708       707       713       709       707       713       711       710       712
       711       710       713       711       710       714       712       710       713
       712       710       714       713       710       714       707       713       710
       710       714       715       714       715       716       714       715       717
       714       715       718       716       715       717       716       715       718
       717       715       718       715       718       719       715       718       720
       715       718       726       719       718       720       719       718       726
       720       718       726       718       720       721       720       721       722
       720       721       723       722       721       723       721       723       724
       721       723       725       721       723       735       724       723       725
       724       723       735       725       723       735       718       726       727
       718       726       728       718       726       729       727       726       728
       727       726       729       728       726       729       726       729       730
       729       730       731       729       730       732       731       730       732
       730       732       733       730       732       734       730       732       782
       733       732       734       733       732       782       734       732       782
       723       735       736       723       735       737       723       735       738
       736       735       737       736       735       738       737       735       738
       735       738       739       735       738       740       735       738       741
       739       738       740       739       738       741       740       738       741
       738       741       742       738       741       743       738       741       744
       742       741       743       742       741       744       743       741       744
       741       744       745       741       744       746       741       744       747
       745       744       746       745       744       747       746       744       747
       744       747       748       744       747       749       744       747       750
       748       747       749       748       747       750       749       747       750
       747       750       751       747       750       752       747       750       753
       751       750       752       751       750       753       752       750       753
       750       753       754       750       753       755       754       753       755
       753       755       756       753       755       757       756       755       757
       755       757       758       755       757       759       755       757       760
       758       757       759       758       757       760       759       757       760
       757       760       761       757       760       762       757       760       763
       761       760       762       761       760       763       762       760       763
       760       763       764       760       763       765       760       763       766
       764       763       765       764       763       766       765       763       766
       763       766       767       763       766       768       763       766       769
       767       766       768       767       766       769       768       766       769
       766       769       770       766       769       771       766       769       772
       770       769       771       770       769       772       771       769       772
       769       772       773       769       772       774       769       772       775
       773       772       774       773       772       775       774       772       775
       772       775       776       772       775       777       772       775       778
       776       775       777       776       775       778       777       775       778
       775       778       779       775       778       780       775       778       781
       779       778       780       779       778       781       780       778       781
       732       782       783       732       782       784       732       782       785
       783       782       784       783       782       785       784       782       785
       782       785       786       782       785       787       782       785       788
       786       785       787       786       785       788       787       785       788
       785       788       789       785       788       790       785       788       791
       789       788       790       789       788       791       790       788       791
       788       791       792       788       791       793       788       791       794
       792       791       793       792       791       794       793       791       794
       791       794       795       791       794       796       791       794       797
       795       794       796       795       794       797       796       794       797
       794       797       798       794       797       799       794       797       800
       798       797       799       798       797       800       799       797       800
       797       800       801       797       800       802       801       800       802
       800       802       803       800       802       804       803       802       804
       802       804       805       802       804       806       802       804       807
       805       804       806       805       804       807       806       804       807
       804       807       808       804       807       809       804       807       810
       808       807       809       808       807       810       809       807       810
       807       810       811       807       810       812       807       810       813
       811       810       812       811       810       813       812       810       813
       810       813       814       810       813       815       810       813       816
       814       813       815       814       813       816       815       813       816
       813       816       817       813       816       818       813       816       819
       817       816       818       817       816       819       818       816       819
       816       819       820       816       819       821       816       819       822
       820       819       821       820       819       822       821       819       822
       819       822       823       819       822       824       819       822       825
       823       822       824       823       822       825       824       822       825
       822       825       826       822       825       827       822       825       828
       826       825       827       826       825       828       827       825       828
       830       829       833       830       829       837       830       829       841
       833       829       837       833       829       841       837       829       841
       829       830       831       829       830       832       829       830       845
       831       830       832       831       830       845       832       830       845
       829       833       834       829       833       835       829       833       836
       834       833       835       834       833       836       835       833       836
       829       837       838       829       837       839       829       837       840
       838       837       839       838       837       840       839       837       840
       829       841       842       829       841       843       829       841       844
       842       841       843       842       841       844       843       841       844
       830       845       846       830       845       847       830       845       851
       846       845       847       846       845       851       847       845       851
       849       848       850       849       848       851       849       848       852
       850       848       851       850       848       852       851       848       852
       845       851       848       848       852       853       852       853       854
       852       853       855       852       853       856       854       853       855
       854       853       856       855       853       856       853       856       857
       853       856       858       853       856       864       857       856       858
       857       856       864       858       856       864       856       858       859
       858       859       860       858       859       861       860       859       861
       859       861       862       859       861       863       859       861       873
       862       861       863       862       861       873       863       861       873
       856       864       865       856       864       866       856       864       867
       865       864       866       865       864       867       866       864       867
       864       867       868       867       868       869       867       868       870
       869       868       870       868       870       871       868       870       872
       868       870       920       871       870       872       871       870       920
       872       870       920       861       873       874       861       873       875
       861       873       876       874       873       875       874       873       876
       875       873       876       873       876       877       873       876       878
       873       876       879       877       876       878       877       876       879
       878       876       879       876       879       880       876       879       881
       876       879       882       880       879       881       880       879       882
       881       879       882       879       882       883       879       882       884
       879       882       885       883       882       884       883       882       885
       884       882       885       882       885       886       882       885       887
       882       885       888       886       885       887       886       885       888
       887       885       888       885       888       889       885       888       890
       885       888       891       889       888       890       889       888       891
       890       888       891       888       891       892       888       891       893
       892       891       893       891       893       894       891       893       895
       894       893       895       893       895       896       893       895       897
       893       895       898       896       895       897       896       895       898
       897       895       898       895       898       899       895       898       900
       895       898       901       899       898       900       899       898       901
       900       898       901       898       901       902       898       901       903
       898       901       904       902       901       903       902       901       904
       903       901       904       901       904       905       901       904       906
       901       904       907       905       904       906       905       904       907
       906       904       907       904       907       908       904       907       909
       904       907       910       908       907       909       908       907       910
       909       907       910       907       910       911       907       910       912
       907       910       913       911       910       912       911       910       913
       912       910       913       910       913       914       910       913       915
       910       913       916       914       913       915       914       913       916
       915       913       916       913       916       917       913       916       918
       913       916       919       917       916       918       917       916       919
       918       916       919       870       920       921       870       920       922
       870       920       923       921       920       922       921       920       923
       922       920       923       920       923       924       920       923       925
       920       923       926       924       923       925       924       923       926
       925       923       926       923       926       927       923       926       928
       923       926       929       927       926       928       927       926       929
       928       926       929       926       929       930       926       929       931
       926       929       932       930       929       931       930       929       932
       931       929       932       929       932       933       929       932       934
       929       932       935       933       932       934       933       932       935
       934       932       935       932       935       936       932       935       937
       932       935       938       936       935       937       936       935       938
       937       935       938       935       938       939       935       938       940
       939       938       940       938       940       941       938       940       942
       941       940       942       940       942       943       940       942       944
       940       942       945       943       942       944       943       942       945
       944       942       945       942       945       946       942       945       947
       942       945       948       946       945       947       946       945       948
       947       945       948       945       948       949       945       948       950
       945       948       951       949       948       950       949       948       951
       950       948       951       948       951       952       948       951       953
       948       951       954       952       951       953       952       951       954
       953       951       954       951       954       955       951       954       956
       951       954       957       955       954       956       955       954       957
       956       954       957       954       957       958       954       957       959
       954       957       960       958       957       959       958       957       960
       959       957       960       957       960       961       957       960       962
       957       960       963       961       960       962       961       960       963
       962       960       963       960       963       964       960       963       965
       960       963       966       964       963       965       964       963       966
       965       963       966       968       967       971       968       967       975
       968       967       979       971       967       975       971       967       979
       975       967       979       967       968       969       967       968       970
       967       968       983       969       968       970       969       968       983
       970       968       983       967       971       972       967       971       973
       967       971       974       972       971       973       972       971       974
       973       971       974       967       975       976       967       975       977
       967       975       978       976       975       977       976       975       978
       977       975       978       967       979       980       967       979       981
       967       979       982       980       979       981       980       979       982
       981       979       982       968       983       984       968       983       985
       968       983       989       984       983       985       984       983       989
       985       983       989       987       986       988       987       986       989
       987       986       990       988       986       989       988       986       990
       989       986       990       983       989       986       986       990       991
       990       991       992       990       991       993       990       991       994
       992       991       993       992       991       994       993       991       994
       991       994       995       991       994       996       991       994      1002
       995       994       996       995       994      1002       996       994      1002
       994       996       997       996       997       998       996       997       999
       998       997       999       997       999      1000       997       999      1001
       997       999      1011      1000       999      1001      1000       999      1011
      1001       999      1011       994      1002      1003       994      1002      1004
       994      1002      1005      1003      1002      1004      1003      1002      1005
      1004      1002      1005      1002      1005      1006      1005      1006      1007
      1005      1006      1008      1007      1006      1008      1006      1008      1009
      1006      1008      1010      1006      1008      1058      1009      1008      1010
      1009      1008      1058      1010      1008      1058       999      1011      1012
       999      1011      1013       999      1011      1014      1012      1011      1013
      1012      1011      1014      1013      1011      1014      1011      1014      1015
      1011      1014      1016      1011      1014      1017      1015      1014      1016
      1015      1014      1017      1016      1014      1017      1014      1017      1018
      1014      1017      1019      1014      1017      1020      1018      1017      1019
      1018      1017      1020      1019      1017      1020      1017      1020      1021
      1017      1020      1022      1017      1020      1023      1021      1020      1022
      1021      1020      1023      1022      1020      1023      1020      1023      1024
      1020      1023      1025      1020      1023      1026      1024      1023      1025
      1024      1023      1026      1025      1023      1026      1023      1026      1027
      1023      1026      1028      1023      1026      1029      1027      1026      1028
      1027      1026      1029      1028      1026      1029      1026      1029      1030
      1026      1029      1031      1030      1029      1031      1029      1031      1032
      1029      1031      1033      1032      1031      1033      1031      1033      1034
      1031      1033      1035      1031      1033      1036      1034      1033      1035
      1034      1033      1036      1035      1033      1036      1033      1036      1037
      1033      1036      1038      1033      1036      1039      1037      1036      1038
      1037      1036      1039      1038      1036      1039      1036      1039      1040
      1036      1039      1041      1036      1039      1042      1040      1039      1041
      1040      1039      1042      1041      1039      1042      1039      1042      1043
      1039      1042      1044      1039      1042      1045      1043      1042      1044
      1043      1042      1045      1044      1042      1045      1042      1045      1046
      1042      1045      1047      1042      1045      1048      1046      1045      1047
      1046      1045      1048      1047      1045      1048      1045      1048      1049
      1045      1048      1050      1045      1048      1051      1049      1048      1050
      1049      1048      1051      1050      1048      1051      1048      1051      1052
      1048      1051      1053      1048      1051      1054      1052      1051      1053
      1052      1051      1054      1053      1051      1054      1051      1054      1055
      1051      1054      1056      1051      1054      1057      1055      1054      1056
      1055      1054      1057      1056      1054      1057      1008      1058      1059
      1008      1058      1060      1008      1058      1061      1059      1058      1060
      1059      1058      1061      1060      1058      1061      1058      1061      1062
      1058      1061      1063      1058      1061      1064      1062      1061      1063
      1062      1061      1064      1063      1061      1064      1061      1064      1065
      1061      1064      1066      1061      1064      1067      1065      1064      1066
      1065      1064      1067      1066      1064      1067      1064      1067      1068
      1064      1067      1069      1064      1067      1070      1068      1067      1069
      1068      1067      1070      1069      1067      1070      1067      1070      1071
      1067      1070      1072      1067      1070      1073      1071      1070      1072
      1071      1070      1073      1072      1070      1073      1070      1073      1074
      1070      1073      1075      1070      1073      1076      1074      1073      1075
      1074      1073      1076      1075      1073      1076      1073      1076      1077
      1073      1076      1078      1077      1076      1078      1076      1078      1079
      1076      1078      1080      1079      1078      1080      1078      1080      1081
      1078      1080      1082      1078      1080      1083      1081      1080      1082
      1081      1080      1083      1082      1080      1083      1080      1083      1084
      1080      1083      1085      1080      1083      1086      1084      1083      1085
      1084      1083      1086      1085      1083      1086      1083      1086      1087
      1083      1086      1088      1083      1086      1089      1087      1086      1088
      1087      1086      1089      1088      1086      1089      1086      1089      1090
      1086      1089      1091      1086      1089      1092      1090      1089      1091
      1090      1089      1092      1091      1089      1092      1089      1092      1093
      1089      1092      1094      1089      1092      1095      1093      1092      1094
      1093      1092      1095      1094      1092      1095      1092      1095      1096
      1092      1095      1097      1092      1095      1098      1096      1095      1097
      1096      1095      1098      1097      1095      1098      1095      1098      1099
      1095      1098      1100      1095      1098      1101      1099      1098      1100
      1099      1098      1101      1100      1098      1101      1098      1101      1102
      1098      1101      1103      1098      1101      1104      1102      1101      1103
      1102      1101      1104      1103      1101      1104      1106      1105      1109
      1106      1105      1113      1106      1105      1117      1109      1105      1113
      1109      1105      1117      1113      1105      1117      1105      1106      1107
      1105      1106      1108      1105      1106      1121      1107      1106      1108
      1107      1106      1121      1108      1106      1121      1105      1109      1110
      1105      1109      1111      1105      1109      1112      1110      1109      1111
      1110      1109      1112      1111      1109      1112      1105      1113      1114
      1105      1113      1115      1105      1113      1116      1114      1113      1115
      1114      1113      1116      1115      1113      1116      1105      1117      1118
      1105      1117      1119      1105      1117      1120      1118      1117      1119
      1118      1117      1120      1119      1117      1120      1106      1121      1122
      1106      1121      1123      1106      1121      1127      1122      1121      1123
      1122      1121      1127      1123      1121      1127      1125      1124      1126
      1125      1124      1127      1125      1124      1128      1126      1124      1127
      1126      1124      1128      1127      1124      1128      1121      1127      1124
      1124      1128      1129      1128      1129      1130      1128      1129      1131
      1128      1129      1132      1130      1129      1131      1130      1129      1132
      1131      1129      1132      1129      1132      1133      1129      1132      1134
      1129      1132      1140      1133      1132      1134      1133      1132      1140
      1134      1132      1140      1132      1134      1135      1134      1135      1136
      1134      1135      1137      1136      1135      1137      1135      1137      1138
      1135      1137      1139      1135      1137      1149      1138      1137      1139
      1138      1137      1149      1139      1137      1149      1132      1140      1141
      1132      1140      1142      1132      1140      1143      1141      1140      1142
      1141      1140      1143      1142      1140      1143      1140      1143      1144
      1143      1144      1145      1143      1144      1146      1145      1144      1146
      1144      1146      1147      1144      1146      1148      1144      1146      1196
      1147      1146      1148      1147      1146      1196      1148      1146      1196
      1137      1149      1150      1137      1149      1151      1137      1149      1152
      1150      1149      1151      1150      1149      1152      1151      1149      1152
      1149      1152      1153      1149      1152      1154      1149      1152      1155
      1153      1152      1154      1153      1152      1155      1154      1152      1155
      1152      1155      1156      1152      1155      1157      1152      1155      1158
      1156      1155      1157      1156      1155      1158      1157      1155      1158
      1155      1158      1159      1155      1158      1160      1155      1158      1161
      1159      1158      1160      1159      1158      1161      1160      1158      1161
      1158      1161      1162      1158      1161      1163      1158      1161      1164
      1162      1161      1163      1162      1161      1164      1163      1161      1164
      1161      1164      1165      1161      1164      1166      1161      1164      1167
      1165      1164      1166      1165      1164      1167      1166      1164      1167
      1164      1167      1168      1164      1167      1169      1168      1167      1169
      1167      1169      1170      1167      1169      1171      1170      1169      1171
      1169      1171      1172      1169      1171      1173      1169      1171      1174
      1172      1171      1173      1172      1171      1174      1173      1171      1174
      1171      1174      1175      1171      1174      1176      1171      1174      1177
      1175      1174      1176      1175      1174      1177      1176      1174      1177
      1174      1177      1178      1174      1177      1179      1174      1177      1180
      1178      1177      1179      1178      1177      1180      1179      1177      1180
      1177      1180      1181      1177      1180      1182      1177      1180      1183
      1181      1180      1182      1181      1180      1183      1182      1180      1183
      1180      1183      1184      1180      1183      1185      1180      1183      1186
      1184      1183      1185      1184      1183      1186      1185      1183      1186
      1183      1186      1187      1183      1186      1188      1183      1186      1189
      1187      1186      1188      1187      1186      1189      1188      1186      1189
      1186      1189      1190      1186      1189      1191      1186      1189      1192
      1190      1189      1191      1190      1189      1192      1191      1189      1192
      1189      1192      1193      1189      1192      1194      1189      1192      1195
      1193      1192      1194      1193      1192      1195      1194      1192      1195
      1146      1196      1197      1146      1196      1198      1146      1196      1199
      1197      1196      1198      1197      1196      1199      1198      1196      1199
      1196      1199      1200      1196      1199      1201      1196      1199      1202
      1200      1199      1201      1200      1199      1202      1201      1199      1202
      1199      1202      1203      1199      1202      1204      1199      1202      1205
      1203      1202      1204      1203      1202      1205      1204      1202      1205
      1202      1205      1206      1202      1205      1207      1202      1205      1208
      1206      1205      1207      1206      1205      1208      1207      1205      1208
      1205      1208      1209      1205      1208      1210      1205      1208      1211
      1209      1208      1210      1209      1208      1211      1210      1208      1211
      1208      1211      1212      1208      1211      1213      1208      1211      1214
      1212      1211      1213      1212      1211      1214      1213      1211      1214
      1211      1214      1215      1211      1214      1216      1215      1214      1216
      1214      1216      1217      1214      1216      1218      1217      1216      1218
      1216      1218      1219      1216      1218      1220      1216      1218      1221
      1219      1218      1220      1219      1218      1221      1220      1218      1221
      1218      1221      1222      1218      1221      1223      1218      1221      1224
      1222      1221      1223      1222      1221      1224      1223      1221      1224
      1221      1224      1225      1221      1224      1226      1221      1224      1227
      1225      1224      1226      1225      1224      1227      1226      1224      1227
      1224      1227      1228      1224      1227      1229      1224      1227      1230
      1228      1227      1229      1228      1227      1230      1229      1227      1230
      1227      1230      1231      1227      1230      1232      1227      1230      1233
      1231      1230      1232      1231      1230      1233      1232      1230      1233
      1230      1233      1234      1230      1233      1235      1230      1233      1236
      1234      1233      1235      1234      1233      1236      1235      1233      1236
      1233      1236      1237      1233      1236      1238      1233      1236      1239
      1237      1236      1238      1237      1236      1239      1238      1236      1239
      1236      1239      1240      1236      1239      1241      1236      1239      1242
      1240      1239      1241      1240      1239      1242      1241      1239      1242
      1244      1243      1247      1244      1243      1251      1244      1243      1255
      1247      1243      1251      1247      1243      1255      1251      1243      1255
      1243      1244      1245      1243      1244      1246      1243      1244      1259
      1245      1244      1246      1245      1244      1259      1246      1244      1259
      1243      1247      1248      1243      1247      1249      1243      1247      1250
      1248      1247      1249      1248      1247      1250      1249      1247      1250
      1243      1251      1252      1243      1251      1253      1243      1251      1254
      1252      1251      1253      1252      1251      1254      1253      1251      1254
      1243      1255      1256      1243      1255      1257      1243      1255      1258
      1256      1255      1257      1256      1255      1258      1257      1255      1258
      1244      1259      1260      1244      1259      1261      1244      1259      1265
      1260      1259      1261      1260      1259      1265      1261      1259      1265
      1263      1262      1264      1263      1262      1265      1263      1262      1266
      1264      1262      1265      1264      1262      1266      1265      1262      1266
      1259      1265      1262      1262      1266      1267      1266      1267      1268
      1266      1267      1269      1266      1267      1270      1268      1267      1269
      1268      1267      1270      1269      1267      1270      1267      1270      1271
      1267      1270      1272      1267      1270      1278      1271      1270      1272
      1271      1270      1278      1272      1270      1278      1270      1272      1273
      1272      1273      1274      1272      1273      1275      1274      1273      1275
      1273      1275      1276      1273      1275      1277      1273      1275      1287
      1276      1275      1277      1276      1275      1287      1277      1275      1287
      1270      1278      1279      1270      1278      1280      1270      1278      1281
      1279      1278      1280      1279      1278      1281      1280      1278      1281
      1278      1281      1282      1281      1282      1283      1281      1282      1284
      1283      1282      1284      1282      1284      1285      1282      1284      1286
      1282      1284      1334      1285      1284      1286      1285      1284      1334
      1286      1284      1334      1275      1287      1288      1275      1287      1289
      1275      1287      1290      1288      1287      1289      1288      1287      1290
      1289      1287      1290      1287      1290      1291      1287      1290      1292
      1287      1290      1293      1291      1290      1292      1291      1290      1293
      1292      1290      1293      1290      1293      1294      1290      1293      1295
      1290      1293      1296      1294      1293      1295      1294      1293      1296
      1295      1293      1296      1293      1296      1297      1293      1296      1298
      1293      1296      1299      1297      1296      1298      1297      1296      1299
      1298      1296      1299      1296      1299      1300      1296      1299      1301
      1296      1299      1302      1300      1299      1301      1300      1299      1302
      1301      1299      1302      1299      1302      1303      1299      1302      1304
      1299      1302      1305      1303      1302      1304      1303      1302      1305
      1304      1302      1305      1302      1305      1306      1302      1305      1307
      1306      1305      1307      1305      1307      1308      1305      1307      1309
      1308      1307      1309      1307      1309      1310      1307      1309      1311
      1307      1309      1312      1310      1309      1311      1310      1309      1312
      1311      1309      1312      1309      1312      1313      1309      1312      1314
      1309      1312      1315      1313      1312      1314      1313      1312      1315
      1314      1312      1315      1312      1315      1316      1312      1315      1317
      1312      1315      1318      1316      1315      1317      1316      1315      1318
      1317      1315      1318      1315      1318      1319      1315      1318      1320
      1315      1318      1321      1319      1318      1320      1319      1318      1321
      1320      1318      1321      1318      1321      1322      1318      1321      1323
      1318      1321      1324      1322      1321      1323      1322      1321      1324
      1323      1321      1324      1321      1324      1325      1321      1324      1326
      1321      1324      1327      1325      1324      1326      1325      1324      1327
      1326      1324      1327      1324      1327      1328      1324      1327      1329
      1324      1327      1330      1328      1327      1329      1328      1327      1330
      1329      1327      1330      1327      1330      1331      1327      1330      1332
      1327      1330      1333      1331      1330      1332      1331      1330      1333
      1332      1330      1333      1284      1334      1335      1284      1334      1336
      1284      1334      1337      1335      1334      1336      1335      1334      1337
      1336      1334      1337      1334      1337      1338      1334      1337      1339
      1334      1337      1340      1338      1337      1339      1338      1337      1340
      1339      1337      1340      1337      1340      1341      1337      1340      1342
      1337      1340      1343      1341      1340      1342      1341      1340      1343
      1342      1340      1343      1340      1343      1344      1340      1343      1345
      1340      1343      1346      1344      1343      1345      1344      1343      1346
      1345      1343      1346      1343      1346      1347      1343      1346      1348
      1343      1346      1349      1347      1346      1348      1347      1346      1349
      1348      1346      1349      1346      1349      1350      1346      1349      1351
      1346      1349      1352      1350      1349      1351      1350      1349      1352
      1351      1349      1352      1349      1352      1353      1349      1352      1354
      1353      1352      1354      1352      1354      1355      1352      1354      1356
      1355      1354      1356      1354      1356      1357      1354      1356      1358
      1354      1356      1359      1357      1356      1358      1357      1356      1359
      1358      1356      1359      1356      1359      1360      1356      1359      1361
      1356      1359      1362      1360      1359      1361      1360      1359      1362
      1361      1359      1362      1359      1362      1363      1359      1362      1364
      1359      1362      1365      1363      1362      1364      1363      1362      1365
      1364      1362      1365      1362      1365      1366      1362      1365      1367
      1362      1365      1368      1366      1365      1367      1366      1365      1368
      1367      1365      1368      1365      1368      1369      1365      1368      1370
      1365      1368      1371      1369      1368      1370      1369      1368      1371
      1370      1368      1371      1368      1371      1372      1368      1371      1373
      1368      1371      1374      1372      1371      1373      1372      1371      1374
      1373      1371      1374      1371      1374      1375      1371      1374      1376
      1371      1374      1377      1375      1374      1376      1375      1374      1377
      1376      1374      1377      1374      1377      1378      1374      1377      1379
      1374      1377      1380      1378      1377      1379      1378      1377      1380
      1379      1377      1380      1382      1381      1385      1382      1381      1389
      1382      1381      1393      1385      1381      1389      1385      1381      1393
      1389      1381      1393      1381      1382      1383      1381      1382      1384
      1381      1382      1397      1383      1382      1384      1383      1382      1397
      1384      1382      1397      1381      1385      1386      1381      1385      1387
      1381      1385      1388      1386      1385      1387      1386      1385      1388
      1387      1385      1388      1381      1389      1390      1381      1389      1391
      1381      1389      1392      1390      1389      1391      1390      1389      1392
      1391      1389      1392      1381      1393      1394      1381      1393      1395
      1381      1393      1396      1394      1393      1395      1394      1393      1396
      1395      1393      1396      1382      1397      1398      1382      1397      1399
      1382      1397      1403      1398      1397      1399      1398      1397      1403
      1399      1397      1403      1401      1400      1402      1401      1400      1403
      1401      1400      1404      1402      1400      1403      1402      1400      1404
      1403      1400      1404      1397      1403      1400      1400      1404      1405
      1404      1405      1406      1404      1405      1407      1404      1405      1408
      1406      1405      1407      1406      1405      1408      1407      1405      1408
      1405      1408      1409      1405      1408      1410      1405      1408      1416
      1409      1408      1410      1409      1408      1416      1410      1408      1416
      1408      1410      1411      1410      1411      1412      1410      1411      1413
      1412      1411      1413      1411      1413      1414      1411      1413      1415
      1411      1413      1425      1414      1413      1415      1414      1413      1425
      1415      1413      1425      1408      1416      1417      1408      1416      1418
      1408      1416      1419      1417      1416      1418      1417      1416      1419
      1418      1416      1419      1416      1419      1420      1419      1420      1421
      1419      1420      1422      1421      1420      1422      1420      1422      1423
      1420      1422      1424      1420      1422      1472      1423      1422      1424
      1423      1422      1472      1424      1422      1472      1413      1425      1426
      1413      1425      1427      1413      1425      1428      1426      1425      1427
      1426      1425      1428      1427      1425      1428      1425      1428      1429
      1425      1428      1430      1425      1428      1431      1429      1428      1430
      1429      1428      1431      1430      1428      1431      1428      1431      1432
      1428      1431      1433      1428      1431      1434      1432      1431      1433
      1432      1431      1434      1433      1431      1434      1431      1434      1435
      1431      1434      1436      1431      1434      1437      1435      1434      1436
      1435      1434      1437      1436      1434      1437      1434      1437      1438
      1434      1437      1439      1434      1437      1440      1438      1437      1439
      1438      1437      1440      1439      1437      1440      1437      1440      1441
      1437      1440      1442      1437      1440      1443      1441      1440      1442
      1441      1440      1443      1442      1440      1443      1440      1443      1444
      1440      1443      1445      1444      1443      1445      1443      1445      1446
      1443      1445      1447      1446      1445      1447      1445      1447      1448
      1445      1447      1449      1445      1447      1450      1448      1447      1449
      1448      1447      1450      1449      1447      1450      1447      1450      1451
      1447      1450      1452      1447      1450      1453      1451      1450      1452
      1451      1450      1453      1452      1450      1453      1450      1453      1454
      1450      1453      1455      1450      1453      1456      1454      1453      1455
      1454      1453      1456      1455      1453      1456      1453      1456      1457
      1453      1456      1458      1453      1456      1459      1457      1456      1458
      1457      1456      1459      1458      1456      1459      1456      1459      1460
      1456      1459      1461      1456      1459      1462      1460      1459      1461
      1460      1459      1462      1461      1459      1462      1459      1462      1463
      1459      1462      1464      1459      1462      1465      1463      1462      1464
      1463      1462      1465      1464      1462      1465      1462      1465      1466
      1462      1465      1467      1462      1465      1468      1466      1465      1467
      1466      1465      1468      1467      1465      1468      1465      1468      1469
      1465      1468      1470      1465      1468      1471      1469      1468      1470
      1469      1468      1471      1470      1468      1471      1422      1472      1473
      1422      1472      1474      1422      1472      1475      1473      1472      1474
      1473      1472      1475      1474      1472      1475      1472      1475      1476
      1472      1475      1477      1472      1475      1478      1476      1475      1477
      1476      1475      1478      1477      1475      1478      1475      1478      1479
      1475      1478      1480      1475      1478      1481      1479      1478      1480
      1479      1478      1481      1480      1478      1481      1478      1481      1482
      1478      1481      1483      1478      1481      1484      1482      1481      1483
      1482      1481      1484      1483      1481      1484      1481      1484      1485
      1481      1484      1486      1481      1484      1487      1485      1484      1486
      1485      1484      1487      1486      1484      1487      1484      1487      1488
      1484      1487      1489      1484      1487      1490      1488      1487      1489
      1488      1487      1490      1489      1487      1490      1487      1490      1491
      1487      1490      1492      1491      1490      1492      1490      1492      1493
      1490      1492      1494      1493      1492      1494      1492      1494      1495
      1492      1494      1496      1492      1494      1497      1495      1494      1496
      1495      1494      1497      1496      1494      1497      1494      1497      1498
      1494      1497      1499      1494      1497      1500      1498      1497      1499
      1498      1497      1500      1499      1497      1500      1497      1500      1501
      1497      1500      1502      1497      1500      1503      1501      1500      1502
      1501      1500      1503      1502      1500      1503      1500      1503      1504
      1500      1503      1505      1500      1503      1506      1504      1503      1505
      1504      1503      1506      1505      1503      1506      1503      1506      1507
      1503      1506      1508      1503      1506      1509      1507      1506      1508
      1507      1506      1509      1508      1506      1509      1506      1509      1510
      1506      1509      1511      1506      1509      1512      1510      1509      1511
      1510      1509      1512      1511      1509      1512      1509      1512      1513
      1509      1512      1514      1509      1512      1515      1513      1512      1514
      1513      1512      1515      1514      1512      1515      1512      1515      1516
      1512      1515      1517      1512      1515      1518      1516      1515      1517
      1516      1515      1518      1517      1515      1518      1520      1519      1523
      1520      1519      1527      1520      1519      1531      1523      1519      1527
      1523      1519      1531      1527      1519      1531      1519      1520      1521
      1519      1520      1522      1519      1520      1535      1521      1520      1522
      1521      1520      1535      1522      1520      1535      1519      1523      1524
      1519      1523      1525      1519      1523      1526      1524      1523      1525
      1524      1523      1526      1525      1523      1526      1519      1527      1528
      1519      1527      1529      1519      1527      1530      1528      1527      1529
      1528      1527      1530      1529      1527      1530      1519      1531      1532
      1519      1531      1533      1519      1531      1534      1532      1531      1533
      1532      1531      1534      1533      1531      1534      1520      1535      1536
      1520      1535      1537      1520      1535      1541      1536      1535      1537
      1536      1535      1541      1537      1535      1541      1539      1538      1540
      1539      1538      1541      1539      1538      1542      1540      1538      1541
      1540      1538      1542      1541      1538      1542      1535      1541      1538
      1538      1542      1543      1542      1543      1544      1542      1543      1545
      1542      1543      1546      1544      1543      1545      1544      1543      1546
      1545      1543      1546      1543      1546      1547      1543      1546      1548
      1543      1546      1554      1547      1546      1548      1547      1546      1554
      1548      1546      1554      1546      1548      1549      1548      1549      1550
      1548      1549      1551      1550      1549      1551      1549      1551      1552
      1549      1551      1553      1549      1551      1563      1552      1551      1553
      1552      1551      1563      1553      1551      1563      1546      1554      1555
      1546      1554      1556      1546      1554      1557      1555      1554      1556
      1555      1554      1557      1556      1554      1557      1554      1557      1558
      1557      1558      1559      1557      1558      1560      1559      1558      1560
      1558      1560      1561      1558      1560      1562      1558      1560      1610
      1561      1560      1562      1561      1560      1610      1562      1560      1610
      1551      1563      1564      1551      1563      1565      1551      1563      1566
      1564      1563      1565      1564      1563      1566      1565      1563      1566
      1563      1566      1567      1563      1566      1568      1563      1566      1569
      1567      1566      1568      1567      1566      1569      1568      1566      1569
      1566      1569      1570      1566      1569      1571      1566      1569      1572
      1570      1569      1571      1570      1569      1572      1571      1569      1572
      1569      1572      1573      1569      1572      1574      1569      1572      1575
      1573      1572      1574      1573      1572      1575      1574      1572      1575
      1572      1575      1576      1572      1575      1577      1572      1575      1578
      1576      1575      1577      1576      1575      1578      1577      1575      1578
      1575      1578      1579      1575      1578      1580      1575      1578      1581
      1579      1578      1580      1579      1578      1581      1580      1578      1581
      1578      1581      1582      1578      1581      1583      1582      1581      1583
      1581      1583      1584      1581      1583      1585      1584      1583      1585
      1583      1585      1586      1583      1585      1587      1583      1585      1588
      1586      1585      1587      1586      1585      1588      1587      1585      1588
      1585      1588      1589      1585      1588      1590      1585      1588      1591
      1589      1588      1590      1589      1588      1591      1590      1588      1591
      1588      1591      1592      1588      1591      1593      1588      1591      1594
      1592      1591      1593      1592      1591      1594      1593      1591      1594
      1591      1594      1595      1591      1594      1596      1591      1594      1597
      1595      1594      1596      1595      1594      1597      1596      1594      1597
      1594      1597      1598      1594      1597      1599      1594      1597      1600
      1598      1597      1599      1598      1597      1600      1599      1597      1600
      1597      1600      1601      1597      1600      1602      1597      1600      1603
      1601      1600      1602      1601      1600      1603      1602      1600      1603
      1600      1603      1604      1600      1603      1605      1600      1603      1606
      1604      1603      1605      1604      1603      1606      1605      1603      1606
      1603      1606      1607      1603      1606      1608      1603      1606      1609
      1607      1606      1608      1607      1606      1609      1608      1606      1609
      1560      1610      1611      1560      1610      1612      1560      1610      1613
      1611      1610      1612      1611      1610      1613      1612      1610      1613
      1610      1613      1614      1610      1613      1615      1610      1613      1616
      1614      1613      1615      1614      1613      1616      1615      1613      1616
      1613      1616      1617      1613      1616      1618      1613      1616      1619
      1617      1616      1618      1617      1616      1619      1618      1616      1619
      1616      1619      1620      1616      1619      1621      1616      1619      1622
      1620      1619      1621      1620      1619      1622      1621      1619      1622
      1619      1622      1623      1619      1622      1624      1619      1622      1625
      1623      1622      1624      1623      1622      1625      1624      1622      1625
      1622      1625      1626      1622      1625      1627      1622      1625      1628
      1626      1625      1627      1626      1625      1628      1627      1625      1628
      1625      1628      1629      1625      1628      1630      1629      1628      1630
      1628      1630      1631      1628      1630      1632      1631      1630      1632
      1630      1632      1633      1630      1632      1634      1630      1632      1635
      1633      1632      1634      1633      1632      1635      1634      1632      1635
      1632      1635      1636      1632      1635      1637      1632      1635      1638
      1636      1635      1637      1636      1635      1638      1637      1635      1638
      1635      1638      1639      1635      1638      1640      1635      1638      1641
      1639      1638      1640      1639      1638      1641      1640      1638      1641
      1638      1641      1642      1638      1641      1643      1638      1641      1644
      1642      1641      1643      1642      1641      1644      1643      1641      1644
      1641      1644      1645      1641      1644      1646      1641      1644      1647
      1645      1644      1646      1645      1644      1647      1646      1644      1647
      1644      1647      1648      1644      1647      1649      1644      1647      1650
      1648      1647      1649      1648      1647      1650      1649      1647      1650
      1647      1650      1651      1647      1650      1652      1647      1650      1653
      1651      1650      1652      1651      1650      1653      1652      1650      1653
      1650      1653      1654      1650      1653      1655      1650      1653      1656
      1654      1653      1655      1654      1653      1656      1655      1653      1656
      1658      1657      1661      1658      1657      1665      1658      1657      1669
      1661      1657      1665      1661      1657      1669      1665      1657      1669
      1657      1658      1659      1657      1658      1660      1657      1658      1673
      1659      1658      1660      1659      1658      1673      1660      1658      1673
      1657      1661      1662      1657      1661      1663      1657      1661      1664
      1662      1661      1663      1662      1661      1664      1663      1661      1664
      1657      1665      1666      1657      1665      1667      1657      1665      1668
      1666      1665      1667      1666      1665      1668      1667      1665      1668
      1657      1669      1670      1657      1669      1671      1657      1669      1672
      1670      1669      1671      1670      1669      1672      1671      1669      1672
      1658      1673      1674      1658      1673      1675      1658      1673      1679
      1674      1673      1675      1674      1673      1679      1675      1673      1679
      1677      1676      1678      1677      1676      1679      1677      1676      1680
      1678      1676      1679      1678      1676      1680      1679      1676      1680
      1673      1679      1676      1676      1680      1681      1680      1681      1682
      1680      1681      1683      1680      1681      1684      1682      1681      1683
      1682      1681      1684      1683      1681      1684      1681      1684      1685
      1681      1684      1686      1681      1684      1692      1685      1684      1686
      1685      1684      1692      1686      1684      1692      1684      1686      1687
      1686      1687      1688      1686      1687      1689      1688      1687      1689
      1687      1689      1690      1687      1689      1691      1687      1689      1701
      1690      1689      1691      1690      1689      1701      1691      1689      1701
      1684      1692      1693      1684      1692      1694      1684      1692      1695
      1693      1692      1694      1693      1692      1695      1694      1692      1695
      1692      1695      1696      1695      1696      1697      1695      1696      1698
      1697      1696      1698      1696      1698      1699      1696      1698      1700
      1696      1698      1748      1699      1698      1700      1699      1698      1748
      1700      1698      1748      1689      1701      1702      1689      1701      1703
      1689      1701      1704      1702      1701      1703      1702      1701      1704
      1703      1701      1704      1701      1704      1705      1701      1704      1706
      1701      1704      1707      1705      1704      1706      1705      1704      1707
      1706      1704      1707      1704      1707      1708      1704      1707      1709
      1704      1707      1710      1708      1707      1709      1708      1707      1710
      1709      1707      1710      1707      1710      1711      1707      1710      1712
      1707      1710      1713      1711      1710      1712      1711      1710      1713
      1712      1710      1713      1710      1713      1714      1710      1713      1715
      1710      1713      1716      1714      1713      1715      1714      1713      1716
      1715      1713      1716      1713      1716      1717      1713      1716      1718
      1713      1716      1719      1717      1716      1718      1717      1716      1719
      1718      1716      1719      1716      1719      1720      1716      1719      1721
      1720      1719      1721      1719      1721      1722      1719      1721      1723
      1722      1721      1723      1721      1723      1724      1721      1723      1725
      1721      1723      1726      1724      1723      1725      1724      1723      1726
      1725      1723      1726      1723      1726      1727      1723      1726      1728
      1723      1726      1729      1727      1726      1728      1727      1726      1729
      1728      1726      1729      1726      1729      1730      1726      1729      1731
      1726      1729      1732      1730      1729      1731      1730      1729      1732
      1731      1729      1732      1729      1732      1733      1729      1732      1734
      1729      1732      1735      1733      1732      1734      1733      1732      1735
      1734      1732      1735      1732      1735      1736      1732      1735      1737
      1732      1735      1738      1736      1735      1737      1736      1735      1738
      1737      1735      1738      1735      1738      1739      1735      1738      1740
      1735      1738      1741      1739      1738      1740      1739      1738      1741
      1740      1738      1741      1738      1741      1742      1738      1741      1743
      1738      1741      1744      1742      1741      1743      1742      1741      1744
      1743      1741      1744      1741      1744      1745      1741      1744      1746
      1741      1744      1747      1745      1744      1746      1745      1744      1747
      1746      1744      1747      1698      1748      1749      1698      1748      1750
      1698      1748      1751      1749      1748      1750      1749      1748      1751
      1750      1748      1751      1748      1751      1752      1748      1751      1753
      1748      1751      1754      1752      1751      1753      1752      1751      1754
      1753      1751      1754      1751      1754      1755      1751      1754      1756
      1751      1754      1757      1755      1754      1756      1755      1754      1757
      1756      1754      1757      1754      1757      1758      1754      1757      1759
      1754      1757      1760      1758      1757      1759      1758      1757      1760
      1759      1757      1760      1757      1760      1761      1757      1760      1762
      1757      1760      1763      1761      1760      1762      1761      1760      1763
      1762      1760      1763      1760      1763      1764      1760      1763      1765
      1760      1763      1766      1764      1763      1765      1764      1763      1766
      1765      1763      1766      1763      1766      1767      1763      1766      1768
      1767      1766      1768      1766      1768      1769      1766      1768      1770
      1769      1768      1770      1768      1770      1771      1768      1770      1772
      1768      1770      1773      1771      1770      1772      1771      1770      1773
      1772      1770      1773      1770      1773      1774      1770      1773      1775
      1770      1773      1776      1774      1773      1775      1774      1773      1776
      1775      1773      1776      1773      1776      1777      1773      1776      1778
      1773      1776      1779      1777      1776      1778      1777      1776      1779
      1778      1776      1779      1776      1779      1780      1776      1779      1781
      1776      1779      1782      1780      1779      1781      1780      1779      1782
      1781      1779      1782      1779      1782      1783      1779      1782      1784
      1779      1782      1785      1783      1782      1784      1783      1782      1785
      1784      1782      1785      1782      1785      1786      1782      1785      1787
      1782      1785      1788      1786      1785      1787      1786      1785      1788
      1787      1785      1788      1785      1788      1789      1785      1788      1790
      1785      1788      1791      1789      1788      1790      1789      1788      1791
      1790      1788      1791      1788      1791      1792      1788      1791      1793
      1788      1791      1794      1792      1791      1793      1792      1791      1794
      1793      1791      1794      1796      1795      1799      1796      1795      1803
      1796      1795      1807      1799      1795      1803      1799      1795      1807
      1803      1795      1807      1795      1796      1797      1795      1796      1798
      1795      1796      1811      1797      1796      1798      1797      1796      1811
      1798      1796      1811      1795      1799      1800      1795      1799      1801
      1795      1799      1802      1800      1799      1801      1800      1799      1802
      1801      1799      1802      1795      1803      1804      1795      1803      1805
      1795      1803      1806      1804      1803      1805      1804      1803      1806
      1805      1803      1806      1795      1807      1808      1795      1807      1809
      1795      1807      1810      1808      1807      1809      1808      1807      1810
      1809      1807      1810      1796      1811      1812      1796      1811      1813
      1796      1811      1817      1812      1811      1813      1812      1811      1817
      1813      1811      1817      1815      1814      1816      1815      1814      1817
      1815      1814      1818      1816      1814      1817      1816      1814      1818
      1817      1814      1818      1811      1817      1814      1814      1818      1819
      1818      1819      1820      1818      1819      1821      1818      1819      1822
      1820      1819      1821      1820      1819      1822      1821      1819      1822
      1819      1822      1823      1819      1822      1824      1819      1822      1830
      1823      1822      1824      1823      1822      1830      1824      1822      1830
      1822      1824      1825      1824      1825      1826      1824      1825      1827
      1826      1825      1827      1825      1827      1828      1825      1827      1829
      1825      1827      1839      1828      1827      1829      1828      1827      1839
      1829      1827      1839      1822      1830      1831      1822      1830      1832
      1822      1830      1833      1831      1830      1832      1831      1830      1833
      1832      1830      1833      1830      1833      1834      1833      1834      1835
      1833      1834      1836      1835      1834      1836      1834      1836      1837
      1834      1836      1838      1834      1836      1886      1837      1836      1838
      1837      1836      1886      1838      1836      1886      1827      1839      1840
      1827      1839      1841      1827      1839      1842      1840      1839      1841
      1840      1839      1842      1841      1839      1842      1839      1842      1843
      1839      1842      1844      1839      1842      1845      1843      1842      1844
      1843      1842      1845      1844      1842      1845      1842      1845      1846
      1842      1845      1847      1842      1845      1848      1846      1845      1847
      1846      1845      1848      1847      1845      1848      1845      1848      1849
      1845      1848      1850      1845      1848      1851      1849      1848      1850
      1849      1848      1851      1850      1848      1851      1848      1851      1852
      1848      1851      1853      1848      1851      1854      1852      1851      1853
      1852      1851      1854      1853      1851      1854      1851      1854      1855
      1851      1854      1856      1851      1854      1857      1855      1854      1856
      1855      1854      1857      1856      1854      1857      1854      1857      1858
      1854      1857      1859      1858      1857      1859      1857      1859      1860
      1857      1859      1861      1860      1859      1861      1859      1861      1862
      1859      1861      1863      1859      1861      1864      1862      1861      1863
      1862      1861      1864      1863      1861      1864      1861      1864      1865
      1861      1864      1866      1861      1864      1867      1865      1864      1866
      1865      1864      1867      1866      1864      1867      1864      1867      1868
      1864      1867      1869      1864      1867      1870      1868      1867      1869
      1868      1867      1870      1869      1867      1870      1867      1870      1871
      1867      1870      1872      1867      1870      1873      1871      1870      1872
      1871      1870      1873      1872      1870      1873      1870      1873      1874
      1870      1873      1875      1870      1873      1876      1874      1873      1875
      1874      1873      1876      1875      1873      1876      1873      1876      1877
      1873      1876      1878      1873      1876      1879      1877      1876      1878
      1877      1876      1879      1878      1876      1879      1876      1879      1880
      1876      1879      1881      1876      1879      1882      1880      1879      1881
      1880      1879      1882      1881      1879      1882      1879      1882      1883
      1879      1882      1884      1879      1882      1885      1883      1882      1884
      1883      1882      1885      1884      1882      1885      1836      1886      1887
      1836      1886      1888      1836      1886      1889      1887      1886      1888
      1887      1886      1889      1888      1886      1889      1886      1889      1890
      1886      1889      1891      1886      1889      1892      1890      1889      1891
      1890      1889      1892      1891      1889      1892      1889      1892      1893
      1889      1892      1894      1889      1892      1895      1893      1892      1894
      1893      1892      1895      1894      1892      1895      1892      1895      1896
      1892      1895      1897      1892      1895      1898      1896      1895      1897
      1896      1895      1898      1897      1895      1898      1895      1898      1899
      1895      1898      1900      1895      1898      1901      1899      1898      1900
      1899      1898      1901      1900      1898      1901      1898      1901      1902
      1898      1901      1903      1898      1901      1904      1902      1901      1903
      1902      1901      1904      1903      1901      1904      1901      1904      1905
      1901      1904      1906      1905      1904      1906      1904      1906      1907
      1904      1906      1908      1907      1906      1908      1906      1908      1909
      1906      1908      1910      1906      1908      1911      1909      1908      1910
      1909      1908      1911      1910      1908      1911      1908      1911      1912
      1908      1911      1913      1908      1911      1914      1912      1911      1913
      1912      1911      1914      1913      1911      1914      1911      1914      1915
      1911      1914      1916      1911      1914      1917      1915      1914      1916
      1915      1914      1917      1916      1914      1917      1914      1917      1918
      1914      1917      1919      1914      1917      1920      1918      1917      1919
      1918      1917      1920      1919      1917      1920      1917      1920      1921
      1917      1920      1922      1917      1920      1923      1921      1920      1922
      1921      1920      1923      1922      1920      1923      1920      1923      1924
      1920      1923      1925      1920      1923      1926      1924      1923      1925
      1924      1923      1926      1925      1923      1926      1923      1926      1927
      1923      1926      1928      1923      1926      1929      1927      1926      1928
      1927      1926      1929      1928      1926      1929      1926      1929      1930
      1926      1929      1931      1926      1929      1932      1930      1929      1931
      1930      1929      1932      1931      1929      1932      1934      1933      1937
      1934      1933      1941      1934      1933      1945      1937      1933      1941
      1937      1933      1945      1941      1933      1945      1933      1934      1935
      1933      1934      1936      1933      1934      1949      1935      1934      1936
      1935      1934      1949      1936      1934      1949      1933      1937      1938
      1933      1937      1939      1933      1937      1940      1938      1937      1939
      1938      1937      1940      1939      1937      1940      1933      1941      1942
      1933      1941      1943      1933      1941      1944      1942      1941      1943
      1942      1941      1944      1943      1941      1944      1933      1945      1946
      1933      1945      1947      1933      1945      1948      1946      1945      1947
      1946      1945      1948      1947      1945      1948      1934      1949      1950
      1934      1949      1951      1934      1949      1955      1950      1949      1951
      1950      1949      1955      1951      1949      1955      1953      1952      1954
      1953      1952      1955      1953      1952      1956      1954      1952      1955
      1954      1952      1956      1955      1952      1956      1949      1955      1952
      1952      1956      1957      1956      1957      1958      1956      1957      1959
      1956      1957      1960      1958      1957      1959      1958      1957      1960
      1959      1957      1960      1957      1960      1961      1957      1960      1962
      1957      1960      1968      1961      1960      1962      1961      1960      1968
      1962      1960      1968      1960      1962      1963      1962      1963      1964
      1962      1963      1965      1964      1963      1965      1963      1965      1966
      1963      1965      1967      1963      1965      1977      1966      1965      1967
      1966      1965      1977      1967      1965      1977      1960      1968      1969
      1960      1968      1970      1960      1968      1971      1969      1968      1970
      1969      1968      1971      1970      1968      1971      1968      1971      1972
      1971      1972      1973      1971      1972      1974      1973      1972      1974
      1972      1974      1975      1972      1974      1976      1972      1974      2024
      1975      1974      1976      1975      1974      2024      1976      1974      2024
      1965      1977      1978      1965      1977      1979      1965      1977      1980
      1978      1977      1979      1978      1977      1980      1979      1977      1980
      1977      1980      1981      1977      1980      1982      1977      1980      1983
      1981      1980      1982      1981      1980      1983      1982      1980      1983
      1980      1983      1984      1980      1983      1985      1980      1983      1986
      1984      1983      1985      1984      1983      1986      1985      1983      1986
      1983      1986      1987      1983      1986      1988      1983      1986      1989
      1987      1986      1988      1987      1986      1989      1988      1986      1989
      1986      1989      1990      1986      1989      1991      1986      1989      1992
      1990      1989      1991      1990      1989      1992      1991      1989      1992
      1989      1992      1993      1989      1992      1994      1989      1992      1995
      1993      1992      1994      1993      1992      1995      1994      1992      1995
      1992      1995      1996      1992      1995      1997      1996      1995      1997
      1995      1997      1998      1995      1997      1999      1998      1997      1999
      1997      1999      2000      1997      1999      2001      1997      1999      2002
      2000      1999      2001      2000      1999      2002      2001      1999      2002
      1999      2002      2003      1999      2002      2004      1999      2002      2005
      2003      2002      2004      2003      2002      2005      2004      2002      2005
      2002      2005      2006      2002      2005      2007      2002      2005      2008
      2006      2005      2007      2006      2005      2008      2007      2005      2008
      2005      2008      2009      2005      2008      2010      2005      2008      2011
      2009      2008      2010      2009      2008      2011      2010      2008      2011
      2008      2011      2012      2008      2011      2013      2008      2011      2014
      2012      2011      2013      2012      2011      2014      2013      2011      2014
      2011      2014      2015      2011      2014      2016      2011      2014      2017
      2015      2014      2016      2015      2014      2017      2016      2014      2017
      2014      2017      2018      2014      2017      2019      2014      2017      2020
      2018      2017      2019      2018      2017      2020      2019      2017      2020
      2017      2020      2021      2017      2020      2022      2017      2020      2023
      2021      2020      2022      2021      2020      2023      2022      2020      2023
      1974      2024      2025      1974      2024      2026      1974      2024      2027
      2025      2024      2026      2025      2024      2027      2026      2024      2027
      2024      2027      2028      2024      2027      2029      2024      2027      2030
      2028      2027      2029      2028      2027      2030      2029      2027      2030
      2027      2030      2031      2027      2030      2032      2027      2030      2033
      2031      2030      2032      2031      2030      2033      2032      2030      2033
      2030      2033      2034      2030      2033      2035      2030      2033      2036
      2034      2033      2035      2034      2033      2036      2035      2033      2036
      2033      2036      2037      2033      2036      2038      2033      2036      2039
      2037      2036      2038      2037      2036      2039      2038      2036      2039
      2036      2039      2040      2036      2039      2041      2036      2039      2042
      2040      2039      2041      2040      2039      2042      2041      2039      2042
      2039      2042      2043      2039      2042      2044      2043      2042      2044
      2042      2044      2045      2042      2044      2046      2045      2044      2046
      2044      2046      2047      2044      2046      2048      2044      2046      2049
      2047      2046      2048      2047      2046      2049      2048      2046      2049
      2046      2049      2050      2046      2049      2051      2046      2049      2052
      2050      2049      2051      2050      2049      2052      2051      2049      2052
      2049      2052      2053      2049      2052      2054      2049      2052      2055
      2053      2052      2054      2053      2052      2055      2054      2052      2055
      2052      2055      2056      2052      2055      2057      2052      2055      2058
      2056      2055      2057      2056      2055      2058      2057      2055      2058
      2055      2058      2059      2055      2058      2060      2055      2058      2061
      2059      2058      2060      2059      2058      2061      2060      2058      2061
      2058      2061      2062      2058      2061      2063      2058      2061      2064
      2062      2061      2063      2062      2061      2064      2063      2061      2064
      2061      2064      2065      2061      2064      2066      2061      2064      2067
      2065      2064      2066      2065      2064      2067      2066      2064      2067
      2064      2067      2068      2064      2067      2069      2064      2067      2070
      2068      2067      2069      2068      2067      2070      2069      2067      2070
      2072      2071      2075      2072      2071      2079      2072      2071      2083
      2075      2071      2079      2075      2071      2083      2079      2071      2083
      2071      2072      2073      2071      2072      2074      2071      2072      2087
      2073      2072      2074      2073      2072      2087      2074      2072      2087
      2071      2075      2076      2071      2075      2077      2071      2075      2078
      2076      2075      2077      2076      2075      2078      2077      2075      2078
      2071      2079      2080      2071      2079      2081      2071      2079      2082
      2080      2079      2081      2080      2079      2082      2081      2079      2082
      2071      2083      2084      2071      2083      2085      2071      2083      2086
      2084      2083      2085      2084      2083      2086      2085      2083      2086
      2072      2087      2088      2072      2087      2089      2072      2087      2093
      2088      2087      2089      2088      2087      2093      2089      2087      2093
      2091      2090      2092      2091      2090      2093      2091      2090      2094
      2092      2090      2093      2092      2090      2094      2093      2090      2094
      2087      2093      2090      2090      2094      2095      2094      2095      2096
      2094      2095      2097      2094      2095      2098      2096      2095      2097
      2096      2095      2098      2097      2095      2098      2095      2098      2099
      2095      2098      2100      2095      2098      2106      2099      2098      2100
      2099      2098      2106      2100      2098      2106      2098      2100      2101
      2100      2101      2102      2100      2101      2103      2102      2101      2103
      2101      2103      2104      2101      2103      2105      2101      2103      2115
      2104      2103      2105      2104      2103      2115      2105      2103      2115
      2098      2106      2107      2098      2106      2108      2098      2106      2109
      2107      2106      2108      2107      2106      2109      2108      2106      2109
      2106      2109      2110      2109      2110      2111      2109      2110      2112
      2111      2110      2112      2110      2112      2113      2110      2112      2114
      2110      2112      2162      2113      2112      2114      2113      2112      2162
      2114      2112      2162      2103      2115      2116      2103      2115      2117
      2103      2115      2118      2116      2115      2117      2116      2115      2118
      2117      2115      2118      2115      2118      2119      2115      2118      2120
      2115      2118      2121      2119      2118      2120      2119      2118      2121
      2120      2118      2121      2118      2121      2122      2118      2121      2123
      2118      2121      2124      2122      2121      2123      2122      2121      2124
      2123      2121      2124      2121      2124      2125      2121      2124      2126
      2121      2124      2127      2125      2124      2126      2125      2124      2127
      2126      2124      2127      2124      2127      2128      2124      2127      2129
      2124      2127      2130      2128      2127      2129      2128      2127      2130
      2129      2127      2130      2127      2130      2131      2127      2130      2132
      2127      2130      2133      2131      2130      2132      2131      2130      2133
      2132      2130      2133      2130      2133      2134      2130      2133      2135
      2134      2133      2135      2133      2135      2136      2133      2135      2137
      2136      2135      2137      2135      2137      2138      2135      2137      2139
      2135      2137      2140      2138      2137      2139      2138      2137      2140
      2139      2137      2140      2137      2140      2141      2137      2140      2142
      2137      2140      2143      2141      2140      2142      2141      2140      2143
      2142      2140      2143      2140      2143      2144      2140      2143      2145
      2140      2143      2146      2144      2143      2145      2144      2143      2146
      2145      2143      2146      2143      2146      2147      2143      2146      2148
      2143      2146      2149      2147      2146      2148      2147      2146      2149
      2148      2146      2149      2146      2149      2150      2146      2149      2151
      2146      2149      2152      2150      2149      2151      2150      2149      2152
      2151      2149      2152      2149      2152      2153      2149      2152      2154
      2149      2152      2155      2153      2152      2154      2153      2152      2155
      2154      2152      2155      2152      2155      2156      2152      2155      2157
      2152      2155      2158      2156      2155      2157      2156      2155      2158
      2157      2155      2158      2155      2158      2159      2155      2158      2160
      2155      2158      2161      2159      2158      2160      2159      2158      2161
      2160      2158      2161      2112      2162      2163      2112      2162      2164
      2112      2162      2165      2163      2162      2164      2163      2162      2165
      2164      2162      2165      2162      2165      2166      2162      2165      2167
      2162      2165      2168      2166      2165      2167      2166      2165      2168
      2167      2165      2168      2165      2168      2169      2165      2168      2170
      2165      2168      2171      2169      2168      2170      2169      2168      2171
      2170      2168      2171      2168      2171      2172      2168      2171      2173
      2168      2171      2174      2172      2171      2173      2172      2171      2174
      2173      2171      2174      2171      2174      2175      2171      2174      2176
      2171      2174      2177      2175      2174      2176      2175      2174      2177
      2176      2174      2177      2174      2177      2178      2174      2177      2179
      2174      2177      2180      2178      2177      2179      2178      2177      2180
      2179      2177      2180      2177      2180      2181      2177      2180      2182
      2181      2180      2182      2180      2182      2183      2180      2182      2184
      2183      2182      2184      2182      2184      2185      2182      2184      2186
      2182      2184      2187      2185      2184      2186      2185      2184      2187
      2186      2184      2187      2184      2187      2188      2184      2187      2189
      2184      2187      2190      2188      2187      2189      2188      2187      2190
      2189      2187      2190      2187      2190      2191      2187      2190      2192
      2187      2190      2193      2191      2190      2192      2191      2190      2193
      2192      2190      2193      2190      2193      2194      2190      2193      2195
      2190      2193      2196      2194      2193      2195      2194      2193      2196
      2195      2193      2196      2193      2196      2197      2193      2196      2198
      2193      2196      2199      2197      2196      2198      2197      2196      2199
      2198      2196      2199      2196      2199      2200      2196      2199      2201
      2196      2199      2202      2200      2199      2201      2200      2199      2202
      2201      2199      2202      2199      2202      2203      2199      2202      2204
      2199      2202      2205      2203      2202      2204      2203      2202      2205
      2204      2202      2205      2202      2205      2206      2202      2205      2207
      2202      2205      2208      2206      2205      2207      2206      2205      2208
      2207      2205      2208      2210      2209      2213      2210      2209      2217
      2210      2209      2221      2213      2209      2217      2213      2209      2221
      2217      2209      2221      2209      2210      2211      2209      2210      2212
      2209      2210      2225      2211      2210      2212      2211      2210      2225
      2212      2210      2225      2209      2213      2214      2209      2213      2215
      2209      2213      2216      2214      2213      2215      2214      2213      2216
      2215      2213      2216      2209      2217      2218      2209      2217      2219
      2209      2217      2220      2218      2217      2219      2218      2217      2220
      2219      2217      2220      2209      2221      2222      2209      2221      2223
      2209      2221      2224      2222      2221      2223      2222      2221      2224
      2223      2221      2224      2210      2225      2226      2210      2225      2227
      2210      2225      2231      2226      2225      2227      2226      2225      2231
      2227      2225      2231      2229      2228      2230      2229      2228      2231
      2229      2228      2232      2230      2228      2231      2230      2228      2232
      2231      2228      2232      2225      2231      2228      2228      2232      2233
      2232      2233      2234      2232      2233      2235      2232      2233      2236
      2234      2233      2235      2234      2233      2236      2235      2233      2236
      2233      2236      2237      2233      2236      2238      2233      2236      2244
      2237      2236      2238      2237      2236      2244      2238      2236      2244
      2236      2238      2239      2238      2239      2240      2238      2239      2241
      2240      2239      2241      2239      2241      2242      2239      2241      2243
      2239      2241      2253      2242      2241      2243      2242      2241      2253
      2243      2241      2253      2236      2244      2245      2236      2244      2246
      2236      2244      2247      2245      2244      2246      2245      2244      2247
      2246      2244      2247      2244      2247      2248      2247      2248      2249
      2247      2248      2250      2249      2248      2250      2248      2250      2251
      2248      2250      2252      2248      2250      2300      2251      2250      2252
      2251      2250      2300      2252      2250      2300      2241      2253      2254
      2241      2253      2255      2241      2253      2256      2254      2253      2255
      2254      2253      2256      2255      2253      2256      2253      2256      2257
      2253      2256      2258      2253      2256      2259      2257      2256      2258
      2257      2256      2259      2258      2256      2259      2256      2259      2260
      2256      2259      2261      2256      2259      2262      2260      2259      2261
      2260      2259      2262      2261      2259      2262      2259      2262      2263
      2259      2262      2264      2259      2262      2265      2263      2262      2264
      2263      2262      2265      2264      2262      2265      2262      2265      2266
      2262      2265      2267      2262      2265      2268      2266      2265      2267
      2266      2265      2268      2267      2265      2268      2265      2268      2269
      2265      2268      2270      2265      2268      2271      2269      2268      2270
      2269      2268      2271      2270      2268      2271      2268      2271      2272
      2268      2271      2273      2272      2271      2273      2271      2273      2274
      2271      2273      2275      2274      2273      2275      2273      2275      2276
      2273      2275      2277      2273      2275      2278      2276      2275      2277
      2276      2275      2278      2277      2275      2278      2275      2278      2279
      2275      2278      2280      2275      2278      2281      2279      2278      2280
      2279      2278      2281      2280      2278      2281      2278      2281      2282
      2278      2281      2283      2278      2281      2284      2282      2281      2283
      2282      2281      2284      2283      2281      2284      2281      2284      2285
      2281      2284      2286      2281      2284      2287      2285      2284      2286
      2285      2284      2287      2286      2284      2287      2284      2287      2288
      2284      2287      2289      2284      2287      2290      2288      2287      2289
      2288      2287      2290      2289      2287      2290      2287      2290      2291
      2287      2290      2292      2287      2290      2293      2291      2290      2292
      2291      2290      2293      2292      2290      2293      2290      2293      2294
      2290      2293      2295      2290      2293      2296      2294      2293      2295
      2294      2293      2296      2295      2293      2296      2293      2296      2297
      2293      2296      2298      2293      2296      2299      2297      2296      2298
      2297      2296      2299      2298      2296      2299      2250      2300      2301
      2250      2300      2302      2250      2300      2303      2301      2300      2302
      2301      2300      2303      2302      2300      2303      2300      2303      2304
      2300      2303      2305      2300      2303      2306      2304      2303      2305
      2304      2303      2306      2305      2303      2306      2303      2306      2307
      2303      2306      2308      2303      2306      2309      2307      2306      2308
      2307      2306      2309      2308      2306      2309      2306      2309      2310
      2306      2309      2311      2306      2309      2312      2310      2309      2311
      2310      2309      2312      2311      2309      2312      2309      2312      2313
      2309      2312      2314      2309      2312      2315      2313      2312      2314
      2313      2312      2315      2314      2312      2315      2312      2315      2316
      2312      2315      2317      2312      2315      2318      2316      2315      2317
      2316      2315      2318      2317      2315      2318      2315      2318      2319
      2315      2318      2320      2319      2318      2320      2318      2320      2321
      2318      2320      2322      2321      2320      2322      2320      2322      2323
      2320      2322      2324      2320      2322      2325      2323      2322      2324
      2323      2322      2325      2324      2322      2325      2322      2325      2326
      2322      2325      2327      2322      2325      2328      2326      2325      2327
      2326      2325      2328      2327      2325      2328      2325      2328      2329
      2325      2328      2330      2325      2328      2331      2329      2328      2330
      2329      2328      2331      2330      2328      2331      2328      2331      2332
      2328      2331      2333      2328      2331      2334      2332      2331      2333
      2332      2331      2334      2333      2331      2334      2331      2334      2335
      2331      2334      2336      2331      2334      2337      2335      2334      2336
      2335      2334      2337      2336      2334      2337      2334      2337      2338
      2334      2337      2339      2334      2337      2340      2338      2337      2339
      2338      2337      2340      2339      2337      2340      2337      2340      2341
      2337      2340      2342      2337      2340      2343      2341      2340      2342
      2341      2340      2343      2342      2340      2343      2340      2343      2344
      2340      2343      2345      2340      2343      2346      2344      2343      2345
      2344      2343      2346      2345      2343      2346      2348      2347      2351
      2348      2347      2355      2348      2347      2359      2351      2347      2355
      2351      2347      2359      2355      2347      2359      2347      2348      2349
      2347      2348      2350      2347      2348      2363      2349      2348      2350
      2349      2348      2363      2350      2348      2363      2347      2351      2352
      2347      2351      2353      2347      2351      2354      2352      2351      2353
      2352      2351      2354      2353      2351      2354      2347      2355      2356
      2347      2355      2357      2347      2355      2358      2356      2355      2357
      2356      2355      2358      2357      2355      2358      2347      2359      2360
      2347      2359      2361      2347      2359      2362      2360      2359      2361
      2360      2359      2362      2361      2359      2362      2348      2363      2364
      2348      2363      2365      2348      2363      2369      2364      2363      2365
      2364      2363      2369      2365      2363      2369      2367      2366      2368
      2367      2366      2369      2367      2366      2370      2368      2366      2369
      2368      2366      2370      2369      2366      2370      2363      2369      2366
      2366      2370      2371      2370      2371      2372      2370      2371      2373
      2370      2371      2374      2372      2371      2373      2372      2371      2374
      2373      2371      2374      2371      2374      2375      2371      2374      2376
      2371      2374      2382      2375      2374      2376      2375      2374      2382
      2376      2374      2382      2374      2376      2377      2376      2377      2378
      2376      2377      2379      2378      2377      2379      2377      2379      2380
      2377      2379      2381      2377      2379      2391      2380      2379      2381
      2380      2379      2391      2381      2379      2391      2374      2382      2383
      2374      2382      2384      2374      2382      2385      2383      2382      2384
      2383      2382      2385      2384      2382      2385      2382      2385      2386
      2385      2386      2387      2385      2386      2388      2387      2386      2388
      2386      2388      2389      2386      2388      2390      2386      2388      2438
      2389      2388      2390      2389      2388      2438      2390      2388      2438
      2379      2391      2392      2379      2391      2393      2379      2391      2394
      2392      2391      2393      2392      2391      2394      2393      2391      2394
      2391      2394      2395      2391      2394      2396      2391      2394      2397
      2395      2394      2396      2395      2394      2397      2396      2394      2397
      2394      2397      2398      2394      2397      2399      2394      2397      2400
      2398      2397      2399      2398      2397      2400      2399      2397      2400
      2397      2400      2401      2397      2400      2402      2397      2400      2403
      2401      2400      2402      2401      2400      2403      2402      2400      2403
      2400      2403      2404      2400      2403      2405      2400      2403      2406
      2404      2403      2405      2404      2403      2406      2405      2403      2406
      2403      2406      2407      2403      2406      2408      2403      2406      2409
      2407      2406      2408      2407      2406      2409      2408      2406      2409
      2406      2409      2410      2406      2409      2411      2410      2409      2411
      2409      2411      2412      2409      2411      2413      2412      2411      2413
      2411      2413      2414      2411      2413      2415      2411      2413      2416
      2414      2413      2415      2414      2413      2416      2415      2413      2416
      2413      2416      2417      2413      2416      2418      2413      2416      2419
      2417      2416      2418      2417      2416      2419      2418      2416      2419
      2416      2419      2420      2416      2419      2421      2416      2419      2422
      2420      2419      2421      2420      2419      2422      2421      2419      2422
      2419      2422      2423      2419      2422      2424      2419      2422      2425
      2423      2422      2424      2423      2422      2425      2424      2422      2425
      2422      2425      2426      2422      2425      2427      2422      2425      2428
      2426      2425      2427      2426      2425      2428      2427      2425      2428
      2425      2428      2429      2425      2428      2430      2425      2428      2431
      2429      2428      2430      2429      2428      2431      2430      2428      2431
      2428      2431      2432      2428      2431      2433      2428      2431      2434
      2432      2431      2433      2432      2431      2434      2433      2431      2434
      2431      2434      2435      2431      2434      2436      2431      2434      2437
      2435      2434      2436      2435      2434      2437      2436      2434      2437
      2388      2438      2439      2388      2438      2440      2388      2438      2441
      2439      2438      2440      2439      2438      2441      2440      2438      2441
      2438      2441      2442      2438      2441      2443      2438      2441      2444
      2442      2441      2443      2442      2441      2444      2443      2441      2444
      2441      2444      2445      2441      2444      2446      2441      2444      2447
      2445      2444      2446      2445      2444      2447      2446      2444      2447
      2444      2447      2448      2444      2447      2449      2444      2447      2450
      2448      2447      2449      2448      2447      2450      2449      2447      2450
      2447      2450      2451      2447      2450      2452      2447      2450      2453
      2451      2450      2452      2451      2450      2453      2452      2450      2453
      2450      2453      2454      2450      2453      2455      2450      2453      2456
      2454      2453      2455      2454      2453      2456      2455      2453      2456
      2453      2456      2457      2453      2456      2458      2457      2456      2458
      2456      2458      2459      2456      2458      2460      2459      2458      2460
      2458      2460      2461      2458      2460      2462      2458      2460      2463
      2461      2460      2462      2461      2460      2463      2462      2460      2463
      2460      2463      2464      2460      2463      2465      2460      2463      2466
      2464      2463      2465      2464      2463      2466      2465      2463      2466
      2463      2466      2467      2463      2466      2468      2463      2466      2469
      2467      2466      2468      2467      2466      2469      2468      2466      2469
      2466      2469      2470      2466      2469      2471      2466      2469      2472
      2470      2469      2471      2470      2469      2472      2471      2469      2472
      2469      2472      2473      2469      2472      2474      2469      2472      2475
      2473      2472      2474      2473      2472      2475      2474      2472      2475
      2472      2475      2476      2472      2475      2477      2472      2475      2478
      2476      2475      2477      2476      2475      2478      2477      2475      2478
      2475      2478      2479      2475      2478      2480      2475      2478      2481
      2479      2478      2480      2479      2478      2481      2480      2478      2481
      2478      2481      2482      2478      2481      2483      2478      2481      2484
      2482      2481      2483      2482      2481      2484      2483      2481      2484
      2486      2485      2489      2486      2485      2493      2486      2485      2497
      2489      2485      2493      2489      2485      2497      2493      2485      2497
      2485      2486      2487      2485      2486      2488      2485      2486      2501
      2487      2486      2488      2487      2486      2501      2488      2486      2501
      2485      2489      2490      2485      2489      2491      2485      2489      2492
      2490      2489      2491      2490      2489      2492      2491      2489      2492
      2485      2493      2494      2485      2493      2495      2485      2493      2496
      2494      2493      2495      2494      2493      2496      2495      2493      2496
      2485      2497      2498      2485      2497      2499      2485      2497      2500
      2498      2497      2499      2498      2497      2500      2499      2497      2500
      2486      2501      2502      2486      2501      2503      2486      2501      2507
      2502      2501      2503      2502      2501      2507      2503      2501      2507
      2505      2504      2506      2505      2504      2507      2505      2504      2508
      2506      2504      2507      2506      2504      2508      2507      2504      2508
      2501      2507      2504      2504      2508      2509      2508      2509      2510
      2508      2509      2511      2508      2509      2512      2510      2509      2511
      2510      2509      2512      2511      2509      2512      2509      2512      2513
      2509      2512      2514      2509      2512      2520      2513      2512      2514
      2513      2512      2520      2514      2512      2520      2512      2514      2515
      2514      2515      2516      2514      2515      2517      2516      2515      2517
      2515      2517      2518      2515      2517      2519      2515      2517      2529
      2518      2517      2519      2518      2517      2529      2519      2517      2529
      2512      2520      2521      2512      2520      2522      2512      2520      2523
      2521      2520      2522      2521      2520      2523      2522      2520      2523
      2520      2523      2524      2523      2524      2525      2523      2524      2526
      2525      2524      2526      2524      2526      2527      2524      2526      2528
      2524      2526      2576      2527      2526      2528      2527      2526      2576
      2528      2526      2576      2517      2529      2530      2517      2529      2531
      2517      2529      2532      2530      2529      2531      2530      2529      2532
      2531      2529      2532      2529      2532      2533      2529      2532      2534
      2529      2532      2535      2533      2532      2534      2533      2532      2535
      2534      2532      2535      2532      2535      2536      2532      2535      2537
      2532      2535      2538      2536      2535      2537      2536      2535      2538
      2537      2535      2538      2535      2538      2539      2535      2538      2540
      2535      2538      2541      2539      2538      2540      2539      2538      2541
      2540      2538      2541      2538      2541      2542      2538      2541      2543
      2538      2541      2544      2542      2541      2543      2542      2541      2544
      2543      2541      2544      2541      2544      2545      2541      2544      2546
      2541      2544      2547      2545      2544      2546      2545      2544      2547
      2546      2544      2547      2544      2547      2548      2544      2547      2549
      2548      2547      2549      2547      2549      2550      2547      2549      2551
      2550      2549      2551      2549      2551      2552      2549      2551      2553
      2549      2551      2554      2552      2551      2553      2552      2551      2554
      2553      2551      2554      2551      2554      2555      2551      2554      2556
      2551      2554      2557      2555      2554      2556      2555      2554      2557
      2556      2554      2557      2554      2557      2558      2554      2557      2559
      2554      2557      2560      2558      2557      2559      2558      2557      2560
      2559      2557      2560      2557      2560      2561      2557      2560      2562
      2557      2560      2563      2561      2560      2562      2561      2560      2563
      2562      2560      2563      2560      2563      2564      2560      2563      2565
      2560      2563      2566      2564      2563      2565      2564      2563      2566
      2565      2563      2566      2563      2566      2567      2563      2566      2568
      2563      2566      2569      2567      2566      2568      2567      2566      2569
      2568      2566      2569      2566      2569      2570      2566      2569      2571
      2566      2569      2572      2570      2569      2571      2570      2569      2572
      2571      2569      2572      2569      2572      2573      2569      2572      2574
      2569      2572      2575      2573      2572      2574      2573      2572      2575
      2574      2572      2575      2526      2576      2577      2526      2576      2578
      2526      2576      2579      2577      2576      2578      2577      2576      2579
      2578      2576      2579      2576      2579      2580      2576      2579      2581
      2576      2579      2582      2580      2579      2581      2580      2579      2582
      2581      2579      2582      2579      2582      2583      2579      2582      2584
      2579      2582      2585      2583      2582      2584      2583      2582      2585
      2584      2582      2585      2582      2585      2586      2582      2585      2587
      2582      2585      2588      2586      2585      2587      2586      2585      2588
      2587      2585      2588      2585      2588      2589      2585      2588      2590
      2585      2588      2591      2589      2588      2590      2589      2588      2591
      2590      2588      2591      2588      2591      2592      2588      2591      2593
      2588      2591      2594      2592      2591      2593      2592      2591      2594
      2593      2591      2594      2591      2594      2595      2591      2594      2596
      2595      2594      2596      2594      2596      2597      2594      2596      2598
      2597      2596      2598      2596      2598      2599      2596      2598      2600
      2596      2598      2601      2599      2598      2600      2599      2598      2601
      2600      2598      2601      2598      2601      2602      2598      2601      2603
      2598      2601      2604      2602      2601      2603      2602      2601      2604
      2603      2601      2604      2601      2604      2605      2601      2604      2606
      2601      2604      2607      2605      2604      2606      2605      2604      2607
      2606      2604      2607      2604      2607      2608      2604      2607      2609
      2604      2607      2610      2608      2607      2609      2608      2607      2610
      2609      2607      2610      2607      2610      2611      2607      2610      2612
      2607      2610      2613      2611      2610      2612      2611      2610      2613
      2612      2610      2613      2610      2613      2614      2610      2613      2615
      2610      2613      2616      2614      2613      2615      2614      2613      2616
      2615      2613      2616      2613      2616      2617      2613      2616      2618
      2613      2616      2619      2617      2616      2618      2617      2616      2619
      2618      2616      2619      2616      2619      2620      2616      2619      2621
      2616      2619      2622      2620      2619      2621      2620      2619      2622
      2621      2619      2622      2624      2623      2627      2624      2623      2631
      2624      2623      2635      2627      2623      2631      2627      2623      2635
      2631      2623      2635      2623      2624      2625      2623      2624      2626
      2623      2624      2639      2625      2624      2626      2625      2624      2639
      2626      2624      2639      2623      2627      2628      2623      2627      2629
      2623      2627      2630      2628      2627      2629      2628      2627      2630
      2629      2627      2630      2623      2631      2632      2623      2631      2633
      2623      2631      2634      2632      2631      2633      2632      2631      2634
      2633      2631      2634      2623      2635      2636      2623      2635      2637
      2623      2635      2638      2636      2635      2637      2636      2635      2638
      2637      2635      2638      2624      2639      2640      2624      2639      2641
      2624      2639      2645      2640      2639      2641      2640      2639      2645
      2641      2639      2645      2643      2642      2644      2643      2642      2645
      2643      2642      2646      2644      2642      2645      2644      2642      2646
      2645      2642      2646      2639      2645      2642      2642      2646      2647
      2646      2647      2648      2646      2647      2649      2646      2647      2650
      2648      2647      2649      2648      2647      2650      2649      2647      2650
      2647      2650      2651      2647      2650      2652      2647      2650      2658
      2651      2650      2652      2651      2650      2658      2652      2650      2658
      2650      2652      2653      2652      2653      2654      2652      2653      2655
      2654      2653      2655      2653      2655      2656      2653      2655      2657
      2653      2655      2667      2656      2655      2657      2656      2655      2667
      2657      2655      2667      2650      2658      2659      2650      2658      2660
      2650      2658      2661      2659      2658      2660      2659      2658      2661
      2660      2658      2661      2658      2661      2662      2661      2662      2663
      2661      2662      2664      2663      2662      2664      2662      2664      2665
      2662      2664      2666      2662      2664      2714      2665      2664      2666
      2665      2664      2714      2666      2664      2714      2655      2667      2668
      2655      2667      2669      2655      2667      2670      2668      2667      2669
      2668      2667      2670      2669      2667      2670      2667      2670      2671
      2667      2670      2672      2667      2670      2673      2671      2670      2672
      2671      2670      2673      2672      2670      2673      2670      2673      2674
      2670      2673      2675      2670      2673      2676      2674      2673      2675
      2674      2673      2676      2675      2673      2676      2673      2676      2677
      2673      2676      2678      2673      2676      2679      2677      2676      2678
      2677      2676      2679      2678      2676      2679      2676      2679      2680
      2676      2679      2681      2676      2679      2682      2680      2679      2681
      2680      2679      2682      2681      2679      2682      2679      2682      2683
      2679      2682      2684      2679      2682      2685      2683      2682      2684
      2683      2682      2685      2684      2682      2685      2682      2685      2686
      2682      2685      2687      2686      2685      2687      2685      2687      2688
      2685      2687      2689      2688      2687      2689      2687      2689      2690
      2687      2689      2691      2687      2689      2692      2690      2689      2691
      2690      2689      2692      2691      2689      2692      2689      2692      2693
      2689      2692      2694      2689      2692      2695      2693      2692      2694
      2693      2692      2695      2694      2692      2695      2692      2695      2696
      2692      2695      2697      2692      2695      2698      2696      2695      2697
      2696      2695      2698      2697      2695      2698      2695      2698      2699
      2695      2698      2700      2695      2698      2701      2699      2698      2700
      2699      2698      2701      2700      2698      2701      2698      2701      2702
      2698      2701      2703      2698      2701      2704      2702      2701      2703
      2702      2701      2704      2703      2701      2704      2701      2704      2705
      2701      2704      2706      2701      2704      2707      2705      2704      2706
      2705      2704      2707      2706      2704      2707      2704      2707      2708
      2704      2707      2709      2704      2707      2710      2708      2707      2709
      2708      2707      2710      2709      2707      2710      2707      2710      2711
      2707      2710      2712      2707      2710      2713      2711      2710      2712
      2711      2710      2713      2712      2710      2713      2664      2714      2715
      2664      2714      2716      2664      2714      2717      2715      2714      2716
      2715      2714      2717      2716      2714      2717      2714      2717      2718
      2714      2717      2719      2714      2717      2720      2718      2717      2719
      2718      2717      2720      2719      2717      2720      2717      2720      2721
      2717      2720      2722      2717      2720      2723      2721      2720      2722
      2721      2720      2723      2722      2720      2723      2720      2723      2724
      2720      2723      2725      2720      2723      2726      2724      2723      2725
      2724      2723      2726      2725      2723      2726      2723      2726      2727
      2723      2726      2728      2723      2726      2729      2727      2726      2728
      2727      2726      2729      2728      2726      2729      2726      2729      2730
      2726      2729      2731      2726      2729      2732      2730      2729      2731
      2730      2729      2732      2731      2729      2732      2729      2732      2733
      2729      2732      2734      2733      2732      2734      2732      2734      2735
      2732      2734      2736      2735      2734      2736      2734      2736      2737
      2734      2736      2738      2734      2736      2739      2737      2736      2738
      2737      2736      2739      2738      2736      2739      2736      2739      2740
      2736      2739      2741      2736      2739      2742      2740      2739      2741
      2740      2739      2742      2741      2739      2742      2739      2742      2743
      2739      2742      2744      2739      2742      2745      2743      2742      2744
      2743      2742      2745      2744      2742      2745      2742      2745      2746
      2742      2745      2747      2742      2745      2748      2746      2745      2747
      2746      2745      2748      2747      2745      2748      2745      2748      2749
      2745      2748      2750      2745      2748      2751      2749      2748      2750
      2749      2748      2751      2750      2748      2751      2748      2751      2752
      2748      2751      2753      2748      2751      2754      2752      2751      2753
      2752      2751      2754      2753      2751      2754      2751      2754      2755
      2751      2754      2756      2751      2754      2757      2755      2754      2756
      2755      2754      2757      2756      2754      2757      2754      2757      2758
      2754      2757      2759      2754      2757      2760      2758      2757      2759
      2758      2757      2760      2759      2757      2760      2762      2761      2765
      2762      2761      2769      2762      2761      2773      2765      2761      2769
      2765      2761      2773      2769      2761      2773      2761      2762      2763
      2761      2762      2764      2761      2762      2777      2763      2762      2764
      2763      2762      2777      2764      2762      2777      2761      2765      2766
      2761      2765      2767      2761      2765      2768      2766      2765      2767
      2766      2765      2768      2767      2765      2768      2761      2769      2770
      2761      2769      2771      2761      2769      2772      2770      2769      2771
      2770      2769      2772      2771      2769      2772      2761      2773      2774
      2761      2773      2775      2761      2773      2776      2774      2773      2775
      2774      2773      2776      2775      2773      2776      2762      2777      2778
      2762      2777      2779      2762      2777      2783      2778      2777      2779
      2778      2777      2783      2779      2777      2783      2781      2780      2782
      2781      2780      2783      2781      2780      2784      2782      2780      2783
      2782      2780      2784      2783      2780      2784      2777      2783      2780
      2780      2784      2785      2784      2785      2786      2784      2785      2787
      2784      2785      2788      2786      2785      2787      2786      2785      2788
      2787      2785      2788      2785      2788      2789      2785      2788      2790
      2785      2788      2796      2789      2788      2790      2789      2788      2796
      2790      2788      2796      2788      2790      2791      2790      2791      2792
      2790      2791      2793      2792      2791      2793      2791      2793      2794
      2791      2793      2795      2791      2793      2805      2794      2793      2795
      2794      2793      2805      2795      2793      2805      2788      2796      2797
      2788      2796      2798      2788      2796      2799      2797      2796      2798
      2797      2796      2799      2798      2796      2799      2796      2799      2800
      2799      2800      2801      2799      2800      2802      2801      2800      2802
      2800      2802      2803      2800      2802      2804      2800      2802      2852
      2803      2802      2804      2803      2802      2852      2804      2802      2852
      2793      2805      2806      2793      2805      2807      2793      2805      2808
      2806      2805      2807      2806      2805      2808      2807      2805      2808
      2805      2808      2809      2805      2808      2810      2805      2808      2811
      2809      2808      2810      2809      2808      2811      2810      2808      2811
      2808      2811      2812      2808      2811      2813      2808      2811      2814
      2812      2811      2813      2812      2811      2814      2813      2811      2814
      2811      2814      2815      2811      2814      2816      2811      2814      2817
      2815      2814      2816      2815      2814      2817      2816      2814      2817
      2814      2817      2818      2814      2817      2819      2814      2817      2820
      2818      2817      2819      2818      2817      2820      2819      2817      2820
      2817      2820      2821      2817      2820      2822      2817      2820      2823
      2821      2820      2822      2821      2820      2823      2822      2820      2823
      2820      2823      2824      2820      2823      2825      2824      2823      2825
      2823      2825      2826      2823      2825      2827      2826      2825      2827
      2825      2827      2828      2825      2827      2829      2825      2827      2830
      2828      2827      2829      2828      2827      2830      2829      2827      2830
      2827      2830      2831      2827      2830      2832      2827      2830      2833
      2831      2830      2832      2831      2830      2833      2832      2830      2833
      2830      2833      2834      2830      2833      2835      2830      2833      2836
      2834      2833      2835      2834      2833      2836      2835      2833      2836
      2833      2836      2837      2833      2836      2838      2833      2836      2839
      2837      2836      2838      2837      2836      2839      2838      2836      2839
      2836      2839      2840      2836      2839      2841      2836      2839      2842
      2840      2839      2841      2840      2839      2842      2841      2839      2842
      2839      2842      2843      2839      2842      2844      2839      2842      2845
      2843      2842      2844      2843      2842      2845      2844      2842      2845
      2842      2845      2846      2842      2845      2847      2842      2845      2848
      2846      2845      2847      2846      2845      2848      2847      2845      2848
      2845      2848      2849      2845      2848      2850      2845      2848      2851
      2849      2848      2850      2849      2848      2851      2850      2848      2851
      2802      2852      2853      2802      2852      2854      2802      2852      2855
      2853      2852      2854      2853      2852      2855      2854      2852      2855
      2852      2855      2856      2852      2855      2857      2852      2855      2858
      2856      2855      2857      2856      2855      2858      2857      2855      2858
      2855      2858      2859      2855      2858      2860      2855      2858      2861
      2859      2858      2860      2859      2858      2861      2860      2858      2861
      2858      2861      2862      2858      2861      2863      2858      2861      2864
      2862      2861      2863      2862      2861      2864      2863      2861      2864
      2861      2864      2865      2861      2864      2866      2861      2864      2867
      2865      2864      2866      2865      2864      2867      2866      2864      2867
      2864      2867      2868      2864      2867      2869      2864      2867      2870
      2868      2867      2869      2868      2867      2870      2869      2867      2870
      2867      2870      2871      2867      2870      2872      2871      2870      2872
      2870      2872      2873      2870      2872      2874      2873      2872      2874
      2872      2874      2875      2872      2874      2876      2872      2874      2877
      2875      2874      2876      2875      2874      2877      2876      2874      2877
      2874      2877      2878      2874      2877      2879      2874      2877      2880
      2878      2877      2879      2878      2877      2880      2879      2877      2880
      2877      2880      2881      2877      2880      2882      2877      2880      2883
      2881      2880      2882      2881      2880      2883      2882      2880      2883
      2880      2883      2884      2880      2883      2885      2880      2883      2886
      2884      2883      2885      2884      2883      2886      2885      2883      2886
      2883      2886      2887      2883      2886      2888      2883      2886      2889
      2887      2886      2888      2887      2886      2889      2888      2886      2889
      2886      2889      2890      2886      2889      2891      2886      2889      2892
      2890      2889      2891      2890      2889      2892      2891      2889      2892
      2889      2892      2893      2889      2892      2894      2889      2892      2895
      2893      2892      2894      2893      2892      2895      2894      2892      2895
      2892      2895      2896      2892      2895      2897      2892      2895      2898
      2896      2895      2897      2896      2895      2898      2897      2895      2898
      2900      2899      2903      2900      2899      2907      2900      2899      2911
      2903      2899      2907      2903      2899      2911      2907      2899      2911
      2899      2900      2901      2899      2900      2902      2899      2900      2915
      2901      2900      2902      2901      2900      2915      2902      2900      2915
      2899      2903      2904      2899      2903      2905      2899      2903      2906
      2904      2903      2905      2904      2903      2906      2905      2903      2906
      2899      2907      2908      2899      2907      2909      2899      2907      2910
      2908      2907      2909      2908      2907      2910      2909      2907      2910
      2899      2911      2912      2899      2911      2913      2899      2911      2914
      2912      2911      2913      2912      2911      2914      2913      2911      2914
      2900      2915      2916      2900      2915      2917      2900      2915      2921
      2916      2915      2917      2916      2915      2921      2917      2915      2921
      2919      2918      2920      2919      2918      2921      2919      2918      2922
      2920      2918      2921      2920      2918      2922      2921      2918      2922
      2915      2921      2918      2918      2922      2923      2922      2923      2924
      2922      2923      2925      2922      2923      2926      2924      2923      2925
      2924      2923      2926      2925      2923      2926      2923      2926      2927
      2923      2926      2928      2923      2926      2934      2927      2926      2928
      2927      2926      2934      2928      2926      2934      2926      2928      2929
      2928      2929      2930      2928      2929      2931      2930      2929      2931
      2929      2931      2932      2929      2931      2933      2929      2931      2943
      2932      2931      2933      2932      2931      2943      2933      2931      2943
      2926      2934      2935      2926      2934      2936      2926      2934      2937
      2935      2934      2936      2935      2934      2937      2936      2934      2937
      2934      2937      2938      2937      2938      2939      2937      2938      2940
      2939      2938      2940      2938      2940      2941      2938      2940      2942
      2938      2940      2990      2941      2940      2942      2941      2940      2990
      2942      2940      2990      2931      2943      2944      2931      2943      2945
      2931      2943      2946      2944      2943      2945      2944      2943      2946
      2945      2943      2946      2943      2946      2947      2943      2946      2948
      2943      2946      2949      2947      2946      2948      2947      2946      2949
      2948      2946      2949      2946      2949      2950      2946      2949      2951
      2946      2949      2952      2950      2949      2951      2950      2949      2952
      2951      2949      2952      2949      2952      2953      2949      2952      2954
      2949      2952      2955      2953      2952      2954      2953      2952      2955
      2954      2952      2955      2952      2955      2956      2952      2955      2957
      2952      2955      2958      2956      2955      2957      2956      2955      2958
      2957      2955      2958      2955      2958      2959      2955      2958      2960
      2955      2958      2961      2959      2958      2960      2959      2958      2961
      2960      2958      2961      2958      2961      2962      2958      2961      2963
      2962      2961      2963      2961      2963      2964      2961      2963      2965
      2964      2963      2965      2963      2965      2966      2963      2965      2967
      2963      2965      2968      2966      2965      2967      2966      2965      2968
      2967      2965      2968      2965      2968      2969      2965      2968      2970
      2965      2968      2971      2969      2968      2970      2969      2968      2971
      2970      2968      2971      2968      2971      2972      2968      2971      2973
      2968      2971      2974      2972      2971      2973      2972      2971      2974
      2973      2971      2974      2971      2974      2975      2971      2974      2976
      2971      2974      2977      2975      2974      2976      2975      2974      2977
      2976      2974      2977      2974      2977      2978      2974      2977      2979
      2974      2977      2980      2978      2977      2979      2978      2977      2980
      2979      2977      2980      2977      2980      2981      2977      2980      2982
      2977      2980      2983      2981      2980      2982      2981      2980      2983
      2982      2980      2983      2980      2983      2984      2980      2983      2985
      2980      2983      2986      2984      2983      2985      2984      2983      2986
      2985      2983      2986      2983      2986      2987      2983      2986      2988
      2983      2986      2989      2987      2986      2988      2987      2986      2989
      2988      2986      2989      2940      2990      2991      2940      2990      2992
      2940      2990      2993      2991      2990      2992      2991      2990      2993
      2992      2990      2993      2990      2993      2994      2990      2993      2995
      2990      2993      2996      2994      2993      2995      2994      2993      2996
      2995      2993      2996      2993      2996      2997      2993      2996      2998
      2993      2996      2999      2997      2996      2998      2997      2996      2999
      2998      2996      2999      2996      2999      3000      2996      2999      3001
      2996      2999      3002      3000      2999      3001      3000      2999      3002
      3001      2999      3002      2999      3002      3003      2999      3002      3004
      2999      3002      3005      3003      3002      3004      3003      3002      3005
      3004      3002      3005      3002      3005      3006      3002      3005      3007
      3002      3005      3008      3006      3005      3007      3006      3005      3008
      3007      3005      3008      3005      3008      3009      3005      3008      3010
      3009      3008      3010      3008      3010      3011      3008      3010      3012
      3011      3010      3012      3010      3012      3013      3010      3012      3014
      3010      3012      3015      3013      3012      3014      3013      3012      3015
      3014      3012      3015      3012      3015      3016      3012      3015      3017
      3012      3015      3018      3016      3015      3017      3016      3015      3018
      3017      3015      3018      3015      3018      3019      3015      3018      3020
      3015      3018      3021      3019      3018      3020      3019      3018      3021
      3020      3018      3021      3018      3021      3022      3018      3021      3023
      3018      3021      3024      3022      3021      3023      3022      3021      3024
      3023      3021      3024      3021      3024      3025      3021      3024      3026
      3021      3024      3027      3025      3024      3026      3025      3024      3027
      3026      3024      3027      3024      3027      3028      3024      3027      3029
      3024      3027      3030      3028      3027      3029      3028      3027      3030
      3029      3027      3030      3027      3030      3031      3027      3030      3032
      3027      3030      3033      3031      3030      3032      3031      3030      3033
      3032      3030      3033      3030      3033      3034      3030      3033      3035
      3030      3033      3036      3034      3033      3035      3034      3033      3036
      3035      3033      3036      3038      3037      3041      3038      3037      3045
      3038      3037      3049      3041      3037      3045      3041      3037      3049
      3045      3037      3049      3037      3038      3039      3037      3038      3040
      3037      3038      3053      3039      3038      3040      3039      3038      3053
      3040      3038      3053      3037      3041      3042      3037      3041      3043
      3037      3041      3044      3042      3041      3043      3042      3041      3044
      3043      3041      3044      3037      3045      3046      3037      3045      3047
      3037      3045      3048      3046      3045      3047      3046      3045      3048
      3047      3045      3048      3037      3049      3050      3037      3049      3051
      3037      3049      3052      3050      3049      3051      3050      3049      3052
      3051      3049      3052      3038      3053      3054      3038      3053      3055
      3038      3053      3059      3054      3053      3055      3054      3053      3059
      3055      3053      3059      3057      3056      3058      3057      3056      3059
      3057      3056      3060      3058      3056      3059      3058      3056      3060
      3059      3056      3060      3053      3059      3056      3056      3060      3061
      3060      3061      3062      3060      3061      3063      3060      3061      3064
      3062      3061      3063      3062      3061      3064      3063      3061      3064
      3061      3064      3065      3061      3064      3066      3061      3064      3072
      3065      3064      3066      3065      3064      3072      3066      3064      3072
      3064      3066      3067      3066      3067      3068      3066      3067      3069
      3068      3067      3069      3067      3069      3070      3067      3069      3071
      3067      3069      3081      3070      3069      3071      3070      3069      3081
      3071      3069      3081      3064      3072      3073      3064      3072      3074
      3064      3072      3075      3073      3072      3074      3073      3072      3075
      3074      3072      3075      3072      3075      3076      3075      3076      3077
      3075      3076      3078      3077      3076      3078      3076      3078      3079
      3076      3078      3080      3076      3078      3128      3079      3078      3080
      3079      3078      3128      3080      3078      3128      3069      3081      3082
      3069      3081      3083      3069      3081      3084      3082      3081      3083
      3082      3081      3084      3083      3081      3084      3081      3084      3085
      3081      3084      3086      3081      3084      3087      3085      3084      3086
      3085      3084      3087      3086      3084      3087      3084      3087      3088
      3084      3087      3089      3084      3087      3090      3088      3087      3089
      3088      3087      3090      3089      3087      3090      3087      3090      3091
      3087      3090      3092      3087      3090      3093      3091      3090      3092
      3091      3090      3093      3092      3090      3093      3090      3093      3094
      3090      3093      3095      3090      3093      3096      3094      3093      3095
      3094      3093      3096      3095      3093      3096      3093      3096      3097
      3093      3096      3098      3093      3096      3099      3097      3096      3098
      3097      3096      3099      3098      3096      3099      3096      3099      3100
      3096      3099      3101      3100      3099      3101      3099      3101      3102
      3099      3101      3103      3102      3101      3103      3101      3103      3104
      3101      3103      3105      3101      3103      3106      3104      3103      3105
      3104      3103      3106      3105      3103      3106      3103      3106      3107
      3103      3106      3108      3103      3106      3109      3107      3106      3108
      3107      3106      3109      3108      3106      3109      3106      3109      3110
      3106      3109      3111      3106      3109      3112      3110      3109      3111
      3110      3109      3112      3111      3109      3112      3109      3112      3113
      3109      3112      3114      3109      3112      3115      3113      3112      3114
      3113      3112      3115      3114      3112      3115      3112      3115      3116
      3112      3115      3117      3112      3115      3118      3116      3115      3117
      3116      3115      3118      3117      3115      3118      3115      3118      3119
      3115      3118      3120      3115      3118      3121      3119      3118      3120
      3119      3118      3121      3120      3118      3121      3118      3121      3122
      3118      3121      3123      3118      3121      3124      3122      3121      3123
      3122      3121      3124      3123      3121      3124      3121      3124      3125
      3121      3124      3126      3121      3124      3127      3125      3124      3126
      3125      3124      3127      3126      3124      3127      3078      3128      3129
      3078      3128      3130      3078      3128      3131      3129      3128      3130
      3129      3128      3131      3130      3128      3131      3128      3131      3132
      3128      3131      3133      3128      3131      3134      3132      3131      3133
      3132      3131      3134      3133      3131      3134      3131      3134      3135
      3131      3134      3136      3131      3134      3137      3135      3134      3136
      3135      3134      3137      3136      3134      3137      3134      3137      3138
      3134      3137      3139      3134      3137      3140      3138      3137      3139
      3138      3137      3140      3139      3137      3140      3137      3140      3141
      3137      3140      3142      3137      3140      3143      3141      3140      3142
      3141      3140      3143      3142      3140      3143      3140      3143      3144
      3140      3143      3145      3140      3143      3146      3144      3143      3145
      3144      3143      3146      3145      3143      3146      3143      3146      3147
      3143      3146      3148      3147      3146      3148      3146      3148      3149
      3146      3148      3150      3149      3148      3150      3148      3150      3151
      3148      3150      3152      3148      3150      3153      3151      3150      3152
      3151      3150      3153      3152      3150      3153      3150      3153      3154
      3150      3153      3155      3150      3153      3156      3154      3153      3155
      3154      3153      3156      3155      3153      3156      3153      3156      3157
      3153      3156      3158      3153      3156      3159      3157      3156      3158
      3157      3156      3159      3158      3156      3159      3156      3159      3160
      3156      3159      3161      3156      3159      3162      3160      3159      3161
      3160      3159      3162      3161      3159      3162      3159      3162      3163
      3159      3162      3164      3159      3162      3165      3163      3162      3164
      3163      3162      3165      3164      3162      3165      3162      3165      3166
      3162      3165      3167      3162      3165      3168      3166      3165      3167
      3166      3165      3168      3167      3165      3168      3165      3168      3169
      3165      3168      3170      3165      3168      3171      3169      3168      3170
      3169      3168      3171      3170      3168      3171      3168      3171      3172
      3168      3171      3173      3168      3171      3174      3172      3171      3173
      3172      3171      3174      3173      3171      3174      3176      3175      3179
      3176      3175      3183      3176      3175      3187      3179      3175      3183
      3179      3175      3187      3183      3175      3187      3175      3176      3177
      3175      3176      3178      3175      3176      3191      3177      3176      3178
      3177      3176      3191      3178      3176      3191      3175      3179      3180
      3175      3179      3181      3175      3179      3182      3180      3179      3181
      3180      3179      3182      3181      3179      3182      3175      3183      3184
      3175      3183      3185      3175      3183      3186      3184      3183      3185
      3184      3183      3186      3185      3183      3186      3175      3187      3188
      3175      3187      3189      3175      3187      3190      3188      3187      3189
      3188      3187      3190      3189      3187      3190      3176      3191      3192
      3176      3191      3193      3176      3191      3197      3192      3191      3193
      3192      3191      3197      3193      3191      3197      3195      3194      3196
      3195      3194      3197      3195      3194      3198      3196      3194      3197
      3196      3194      3198      3197      3194      3198      3191      3197      3194
      3194      3198      3199      3198      3199      3200      3198      3199      3201
      3198      3199      3202      3200      3199      3201      3200      3199      3202
      3201      3199      3202      3199      3202      3203      3199      3202      3204
      3199      3202      3210      3203      3202      3204      3203      3202      3210
      3204      3202      3210      3202      3204      3205      3204      3205      3206
      3204      3205      3207      3206      3205      3207      3205      3207      3208
      3205      3207      3209      3205      3207      3219      3208      3207      3209
      3208      3207      3219      3209      3207      3219      3202      3210      3211
      3202      3210      3212      3202      3210      3213      3211      3210      3212
      3211      3210      3213      3212      3210      3213      3210      3213      3214
      3213      3214      3215      3213      3214      3216      3215      3214      3216
      3214      3216      3217      3214      3216      3218      3214      3216      3266
      3217      3216      3218      3217      3216      3266      3218      3216      3266
      3207      3219      3220      3207      3219      3221      3207      3219      3222
      3220      3219      3221      3220      3219      3222      3221      3219      3222
      3219      3222      3223      3219      3222      3224      3219      3222      3225
      3223      3222      3224      3223      3222      3225      3224      3222      3225
      3222      3225      3226      3222      3225      3227      3222      3225      3228
      3226      3225      3227      3226      3225      3228      3227      3225      3228
      3225      3228      3229      3225      3228      3230      3225      3228      3231
      3229      3228      3230      3229      3228      3231      3230      3228      3231
      3228      3231      3232      3228      3231      3233      3228      3231      3234
      3232      3231      3233      3232      3231      3234      3233      3231      3234
      3231      3234      3235      3231      3234      3236      3231      3234      3237
      3235      3234      3236      3235      3234      3237      3236      3234      3237
      3234      3237      3238      3234      3237      3239      3238      3237      3239
      3237      3239      3240      3237      3239      3241      3240      3239      3241
      3239      3241      3242      3239      3241      3243      3239      3241      3244
      3242      3241      3243      3242      3241      3244      3243      3241      3244
      3241      3244      3245      3241      3244      3246      3241      3244      3247
      3245      3244      3246      3245      3244      3247      3246      3244      3247
      3244      3247      3248      3244      3247      3249      3244      3247      3250
      3248      3247      3249      3248      3247      3250      3249      3247      3250
      3247      3250      3251      3247      3250      3252      3247      3250      3253
      3251      3250      3252      3251      3250      3253      3252      3250      3253
      3250      3253      3254      3250      3253      3255      3250      3253      3256
      3254      3253      3255      3254      3253      3256      3255      3253      3256
      3253      3256      3257      3253      3256      3258      3253      3256      3259
      3257      3256      3258      3257      3256      3259      3258      3256      3259
      3256      3259      3260      3256      3259      3261      3256      3259      3262
      3260      3259      3261      3260      3259      3262      3261      3259      3262
      3259      3262      3263      3259      3262      3264      3259      3262      3265
      3263      3262      3264      3263      3262      3265      3264      3262      3265
      3216      3266      3267      3216      3266      3268      3216      3266      3269
      3267      3266      3268      3267      3266      3269      3268      3266      3269
      3266      3269      3270      3266      3269      3271      3266      3269      3272
      3270      3269      3271      3270      3269      3272      3271      3269      3272
      3269      3272      3273      3269      3272      3274      3269      3272      3275
      3273      3272      3274      3273      3272      3275      3274      3272      3275
      3272      3275      3276      3272      3275      3277      3272      3275      3278
      3276      3275      3277      3276      3275      3278      3277      3275      3278
      3275      3278      3279      3275      3278      3280      3275      3278      3281
      3279      3278      3280      3279      3278      3281      3280      3278      3281
      3278      3281      3282      3278      3281      3283      3278      3281      3284
      3282      3281      3283      3282      3281      3284      3283      3281      3284
      3281      3284      3285      3281      3284      3286      3285      3284      3286
      3284      3286      3287      3284      3286      3288      3287      3286      3288
      3286      3288      3289      3286      3288      3290      3286      3288      3291
      3289      3288      3290      3289      3288      3291      3290      3288      3291
      3288      3291      3292      3288      3291      3293      3288      3291      3294
      3292      3291      3293      3292      3291      3294      3293      3291      3294
      3291      3294      3295      3291      3294      3296      3291      3294      3297
      3295      3294      3296      3295      3294      3297      3296      3294      3297
      3294      3297      3298      3294      3297      3299      3294      3297      3300
      3298      3297      3299      3298      3297      3300      3299      3297      3300
      3297      3300      3301      3297      3300      3302      3297      3300      3303
      3301      3300      3302      3301      3300      3303      3302      3300      3303
      3300      3303      3304      3300      3303      3305      3300      3303      3306
      3304      3303      3305      3304      3303      3306      3305      3303      3306
      3303      3306      3307      3303      3306      3308      3303      3306      3309
      3307      3306      3308      3307      3306      3309      3308      3306      3309
      3306      3309      3310      3306      3309      3311      3306      3309      3312
      3310      3309      3311      3310      3309      3312      3311      3309      3312
      3314      3313      3317      3314      3313      3321      3314      3313      3325
      3317      3313      3321      3317      3313      3325      3321      3313      3325
      3313      3314      3315      3313      3314      3316      3313      3314      3329
      3315      3314      3316      3315      3314      3329      3316      3314      3329
      3313      3317      3318      3313      3317      3319      3313      3317      3320
      3318      3317      3319      3318      3317      3320      3319      3317      3320
      3313      3321      3322      3313      3321      3323      3313      3321      3324
      3322      3321      3323      3322      3321      3324      3323      3321      3324
      3313      3325      3326      3313      3325      3327      3313      3325      3328
      3326      3325      3327      3326      3325      3328      3327      3325      3328
      3314      3329      3330      3314      3329      3331      3314      3329      3335
      3330      3329      3331      3330      3329      3335      3331      3329      3335
      3333      3332      3334      3333      3332      3335      3333      3332      3336
      3334      3332      3335      3334      3332      3336      3335      3332      3336
      3329      3335      3332      3332      3336      3337      3336      3337      3338
      3336      3337      3339      3336      3337      3340      3338      3337      3339
      3338      3337      3340      3339      3337      3340      3337      3340      3341
      3337      3340      3342      3337      3340      3348      3341      3340      3342
      3341      3340      3348      3342      3340      3348      3340      3342      3343
      3342      3343      3344      3342      3343      3345      3344      3343      3345
      3343      3345      3346      3343      3345      3347      3343      3345      3357
      3346      3345      3347      3346      3345      3357      3347      3345      3357
      3340      3348      3349      3340      3348      3350      3340      3348      3351
      3349      3348      3350      3349      3348      3351      3350      3348      3351
      3348      3351      3352      3351      3352      3353      3351      3352      3354
      3353      3352      3354      3352      3354      3355      3352      3354      3356
      3352      3354      3404      3355      3354      3356      3355      3354      3404
      3356      3354      3404      3345      3357      3358      3345      3357      3359
      3345      3357      3360      3358      3357      3359      3358      3357      3360
      3359      3357      3360      3357      3360      3361      3357      3360      3362
      3357      3360      3363      3361      3360      3362      3361      3360      3363
      3362      3360      3363      3360      3363      3364      3360      3363      3365
      3360      3363      3366      3364      3363      3365      3364      3363      3366
      3365      3363      3366      3363      3366      3367      3363      3366      3368
      3363      3366      3369      3367      3366      3368      3367      3366      3369
      3368      3366      3369      3366      3369      3370      3366      3369      3371
      3366      3369      3372      3370      3369      3371      3370      3369      3372
      3371      3369      3372      3369      3372      3373      3369      3372      3374
      3369      3372      3375      3373      3372      3374      3373      3372      3375
      3374      3372      3375      3372      3375      3376      3372      3375      3377
      3376      3375      3377      3375      3377      3378      3375      3377      3379
      3378      3377      3379      3377      3379      3380      3377      3379      3381
      3377      3379      3382      3380      3379      3381      3380      3379      3382
      3381      3379      3382      3379      3382      3383      3379      3382      3384
      3379      3382      3385      3383      3382      3384      3383      3382      3385
      3384      3382      3385      3382      3385      3386      3382      3385      3387
      3382      3385      3388      3386      3385      3387      3386      3385      3388
      3387      3385      3388      3385      3388      3389      3385      3388      3390
      3385      3388      3391      3389      3388      3390      3389      3388      3391
      3390      3388      3391      3388      3391      3392      3388      3391      3393
      3388      3391      3394      3392      3391      3393      3392      3391      3394
      3393      3391      3394      3391      3394      3395      3391      3394      3396
      3391      3394      3397      3395      3394      3396      3395      3394      3397
      3396      3394      3397      3394      3397      3398      3394      3397      3399
      3394      3397      3400      3398      3397      3399      3398      3397      3400
      3399      3397      3400      3397      3400      3401      3397      3400      3402
      3397      3400      3403      3401      3400      3402      3401      3400      3403
      3402      3400      3403      3354      3404      3405      3354      3404      3406
      3354      3404      3407      3405      3404      3406      3405      3404      3407
      3406      3404      3407      3404      3407      3408      3404      3407      3409
      3404      3407      3410      3408      3407      3409      3408      3407      3410
      3409      3407      3410      3407      3410      3411      3407      3410      3412
      3407      3410      3413      3411      3410      3412      3411      3410      3413
      3412      3410      3413      3410      3413      3414      3410      3413      3415
      3410      3413      3416      3414      3413      3415      3414      3413      3416
      3415      3413      3416      3413      3416      3417      3413      3416      3418
      3413      3416      3419      3417      3416      3418      3417      3416      3419
      3418      3416      3419      3416      3419      3420      3416      3419      3421
      3416      3419      3422      3420      3419      3421      3420      3419      3422
      3421      3419      3422      3419      3422      3423      3419      3422      3424
      3423      3422      3424      3422      3424      3425      3422      3424      3426
      3425      3424      3426      3424      3426      3427      3424      3426      3428
      3424      3426      3429      3427      3426      3428      3427      3426      3429
      3428      3426      3429      3426      3429      3430      3426      3429      3431
      3426      3429      3432      3430      3429      3431      3430      3429      3432
      3431      3429      3432      3429      3432      3433      3429      3432      3434
      3429      3432      3435      3433      3432      3434      3433      3432      3435
      3434      3432      3435      3432      3435      3436      3432      3435      3437
      3432      3435      3438      3436      3435      3437      3436      3435      3438
      3437      3435      3438      3435      3438      3439      3435      3438      3440
      3435      3438      3441      3439      3438      3440      3439      3438      3441
      3440      3438      3441      3438      3441      3442      3438      3441      3443
      3438      3441      3444      3442      3441      3443      3442      3441      3444
      3443      3441      3444      3441      3444      3445      3441      3444      3446
      3441      3444      3447      3445      3444      3446      3445      3444      3447
      3446      3444      3447      3444      3447      3448      3444      3447      3449
      3444      3447      3450      3448      3447      3449      3448      3447      3450
      3449      3447      3450      3452      3451      3455      3452      3451      3459
      3452      3451      3463      3455      3451      3459      3455      3451      3463
      3459      3451      3463      3451      3452      3453      3451      3452      3454
      3451      3452      3467      3453      3452      3454      3453      3452      3467
      3454      3452      3467      3451      3455      3456      3451      3455      3457
      3451      3455      3458      3456      3455      3457      3456      3455      3458
      3457      3455      3458      3451      3459      3460      3451      3459      3461
      3451      3459      3462      3460      3459      3461      3460      3459      3462
      3461      3459      3462      3451      3463      3464      3451      3463      3465
      3451      3463      3466      3464      3463      3465      3464      3463      3466
      3465      3463      3466      3452      3467      3468      3452      3467      3469
      3452      3467      3473      3468      3467      3469      3468      3467      3473
      3469      3467      3473      3471      3470      3472      3471      3470      3473
      3471      3470      3474      3472      3470      3473      3472      3470      3474
      3473      3470      3474      3467      3473      3470      3470      3474      3475
      3474      3475      3476      3474      3475      3477      3474      3475      3478
      3476      3475      3477      3476      3475      3478      3477      3475      3478
      3475      3478      3479      3475      3478      3480      3475      3478      3486
      3479      3478      3480      3479      3478      3486      3480      3478      3486
      3478      3480      3481      3480      3481      3482      3480      3481      3483
      3482      3481      3483      3481      3483      3484      3481      3483      3485
      3481      3483      3495      3484      3483      3485      3484      3483      3495
      3485      3483      3495      3478      3486      3487      3478      3486      3488
      3478      3486      3489      3487      3486      3488      3487      3486      3489
      3488      3486      3489      3486      3489      3490      3489      3490      3491
      3489      3490      3492      3491      3490      3492      3490      3492      3493
      3490      3492      3494      3490      3492      3542      3493      3492      3494
      3493      3492      3542      3494      3492      3542      3483      3495      3496
      3483      3495      3497      3483      3495      3498      3496      3495      3497
      3496      3495      3498      3497      3495      3498      3495      3498      3499
      3495      3498      3500      3495      3498      3501      3499      3498      3500
      3499      3498      3501      3500      3498      3501      3498      3501      3502
      3498      3501      3503      3498      3501      3504      3502      3501      3503
      3502      3501      3504      3503      3501      3504      3501      3504      3505
      3501      3504      3506      3501      3504      3507      3505      3504      3506
      3505      3504      3507      3506      3504      3507      3504      3507      3508
      3504      3507      3509      3504      3507      3510      3508      3507      3509
      3508      3507      3510      3509      3507      3510      3507      3510      3511
      3507      3510      3512      3507      3510      3513      3511      3510      3512
      3511      3510      3513      3512      3510      3513      3510      3513      3514
      3510      3513      3515      3514      3513      3515      3513      3515      3516
      3513      3515      3517      3516      3515      3517      3515      3517      3518
      3515      3517      3519      3515      3517      3520      3518      3517      3519
      3518      3517      3520      3519      3517      3520      3517      3520      3521
      3517      3520      3522      3517      3520      3523      3521      3520      3522
      3521      3520      3523      3522      3520      3523      3520      3523      3524
      3520      3523      3525      3520      3523      3526      3524      3523      3525
      3524      3523      3526      3525      3523      3526      3523      3526      3527
      3523      3526      3528      3523      3526      3529      3527      3526      3528
      3527      3526      3529      3528      3526      3529      3526      3529      3530
      3526      3529      3531      3526      3529      3532      3530      3529      3531
      3530      3529      3532      3531      3529      3532      3529      3532      3533
      3529      3532      3534      3529      3532      3535      3533      3532      3534
      3533      3532      3535      3534      3532      3535      3532      3535      3536
      3532      3535      3537      3532      3535      3538      3536      3535      3537
      3536      3535      3538      3537      3535      3538      3535      3538      3539
      3535      3538      3540      3535      3538      3541      3539      3538      3540
      3539      3538      3541      3540      3538      3541      3492      3542      3543
      3492      3542      3544      3492      3542      3545      3543      3542      3544
      3543      3542      3545      3544      3542      3545      3542      3545      3546
      3542      3545      3547      3542      3545      3548      3546      3545      3547
      3546      3545      3548      3547      3545      3548      3545      3548      3549
      3545      3548      3550      3545      3548      3551      3549      3548      3550
      3549      3548      3551      3550      3548      3551      3548      3551      3552
      3548      3551      3553      3548      3551      3554      3552      3551      3553
      3552      3551      3554      3553      3551      3554      3551      3554      3555
      3551      3554      3556      3551      3554      3557      3555      3554      3556
      3555      3554      3557      3556      3554      3557      3554      3557      3558
      3554      3557      3559      3554      3557      3560      3558      3557      3559
      3558      3557      3560      3559      3557      3560      3557      3560      3561
      3557      3560      3562      3561      3560      3562      3560      3562      3563
      3560      3562      3564      3563      3562      3564      3562      3564      3565
      3562      3564      3566      3562      3564      3567      3565      3564      3566
      3565      3564      3567      3566      3564      3567      3564      3567      3568
      3564      3567      3569      3564      3567      3570      3568      3567      3569
      3568      3567      3570      3569      3567      3570      3567      3570      3571
      3567      3570      3572      3567      3570      3573      3571      3570      3572
      3571      3570      3573      3572      3570      3573      3570      3573      3574
      3570      3573      3575      3570      3573      3576      3574      3573      3575
      3574      3573      3576      3575      3573      3576      3573      3576      3577
      3573      3576      3578      3573      3576      3579      3577      3576      3578
      3577      3576      3579      3578      3576      3579      3576      3579      3580
      3576      3579      3581      3576      3579      3582      3580      3579      3581
      3580      3579      3582      3581      3579      3582      3579      3582      3583
      3579      3582      3584      3579      3582      3585      3583      3582      3584
      3583      3582      3585      3584      3582      3585      3582      3585      3586
      3582      3585      3587      3582      3585      3588      3586      3585      3587
      3586      3585      3588      3587      3585      3588      3590      3589      3593
      3590      3589      3597      3590      3589      3601      3593      3589      3597
      3593      3589      3601      3597      3589      3601      3589      3590      3591
      3589      3590      3592      3589      3590      3605      3591      3590      3592
      3591      3590      3605      3592      3590      3605      3589      3593      3594
      3589      3593      3595      3589      3593      3596      3594      3593      3595
      3594      3593      3596      3595      3593      3596      3589      3597      3598
      3589      3597      3599      3589      3597      3600      3598      3597      3599
      3598      3597      3600      3599      3597      3600      3589      3601      3602
      3589      3601      3603      3589      3601      3604      3602      3601      3603
      3602      3601      3604      3603      3601      3604      3590      3605      3606
      3590      3605      3607      3590      3605      3611      3606      3605      3607
      3606      3605      3611      3607      3605      3611      3609      3608      3610
      3609      3608      3611      3609      3608      3612      3610      3608      3611
      3610      3608      3612      3611      3608      3612      3605      3611      3608
      3608      3612      3613      3612      3613      3614      3612      3613      3615
      3612      3613      3616      3614      3613      3615      3614      3613      3616
      3615      3613      3616      3613      3616      3617      3613      3616      3618
      3613      3616      3624      3617      3616      3618      3617      3616      3624
      3618      3616      3624      3616      3618      3619      3618      3619      3620
      3618      3619      3621      3620      3619      3621      3619      3621      3622
      3619      3621      3623      3619      3621      3633      3622      3621      3623
      3622      3621      3633      3623      3621      3633      3616      3624      3625
      3616      3624      3626      3616      3624      3627      3625      3624      3626
      3625      3624      3627      3626      3624      3627      3624      3627      3628
      3627      3628      3629      3627      3628      3630      3629      3628      3630
      3628      3630      3631      3628      3630      3632      3628      3630      3680
      3631      3630      3632      3631      3630      3680      3632      3630      3680
      3621      3633      3634      3621      3633      3635      3621      3633      3636
      3634      3633      3635      3634      3633      3636      3635      3633      3636
      3633      3636      3637      3633      3636      3638      3633      3636      3639
      3637      3636      3638      3637      3636      3639      3638      3636      3639
      3636      3639      3640      3636      3639      3641      3636      3639      3642
      3640      3639      3641      3640      3639      3642      3641      3639      3642
      3639      3642      3643      3639      3642      3644      3639      3642      3645
      3643      3642      3644      3643      3642      3645      3644      3642      3645
      3642      3645      3646      3642      3645      3647      3642      3645      3648
      3646      3645      3647      3646      3645      3648      3647      3645      3648
      3645      3648      3649      3645      3648      3650      3645      3648      3651
      3649      3648      3650      3649      3648      3651      3650      3648      3651
      3648      3651      3652      3648      3651      3653      3652      3651      3653
      3651      3653      3654      3651      3653      3655      3654      3653      3655
      3653      3655      3656      3653      3655      3657      3653      3655      3658
      3656      3655      3657      3656      3655      3658      3657      3655      3658
      3655      3658      3659      3655      3658      3660      3655      3658      3661
      3659      3658      3660      3659      3658      3661      3660      3658      3661
      3658      3661      3662      3658      3661      3663      3658      3661      3664
      3662      3661      3663      3662      3661      3664      3663      3661      3664
      3661      3664      3665      3661      3664      3666      3661      3664      3667
      3665      3664      3666      3665      3664      3667      3666      3664      3667
      3664      3667      3668      3664      3667      3669      3664      3667      3670
      3668      3667      3669      3668      3667      3670      3669      3667      3670
      3667      3670      3671      3667      3670      3672      3667      3670      3673
      3671      3670      3672      3671      3670      3673      3672      3670      3673
      3670      3673      3674      3670      3673      3675      3670      3673      3676
      3674      3673      3675      3674      3673      3676      3675      3673      3676
      3673      3676      3677      3673      3676      3678      3673      3676      3679
      3677      3676      3678      3677      3676      3679      3678      3676      3679
      3630      3680      3681      3630      3680      3682      3630      3680      3683
      3681      3680      3682      3681      3680      3683      3682      3680      3683
      3680      3683      3684      3680      3683      3685      3680      3683      3686
      3684      3683      3685      3684      3683      3686      3685      3683      3686
      3683      3686      3687      3683      3686      3688      3683      3686      3689
      3687      3686      3688      3687      3686      3689      3688      3686      3689
      3686      3689      3690      3686      3689      3691      3686      3689      3692
      3690      3689      3691      3690      3689      3692      3691      3689      3692
      3689      3692      3693      3689      3692      3694      3689      3692      3695
      3693      3692      3694      3693      3692      3695      3694      3692      3695
      3692      3695      3696      3692      3695      3697      3692      3695      3698
      3696      3695      3697      3696      3695      3698      3697      3695      3698
      3695      3698      3699      3695      3698      3700      3699      3698      3700
      3698      3700      3701      3698      3700      3702      3701      3700      3702
      3700      3702      3703      3700      3702      3704      3700      3702      3705
      3703      3702      3704      3703      3702      3705      3704      3702      3705
      3702      3705      3706      3702      3705      3707      3702      3705      3708
      3706      3705      3707      3706      3705      3708      3707      3705      3708
      3705      3708      3709      3705      3708      3710      3705      3708      3711
      3709      3708      3710      3709      3708      3711      3710      3708      3711
      3708      3711      3712      3708      3711      3713      3708      3711      3714
      3712      3711      3713      3712      3711      3714      3713      3711      3714
      3711      3714      3715      3711      3714      3716      3711      3714      3717
      3715      3714      3716      3715      3714      3717      3716      3714      3717
      3714      3717      3718      3714      3717      3719      3714      3717      3720
      3718      3717      3719      3718      3717      3720      3719      3717      3720
      3717      3720      3721      3717      3720      3722      3717      3720      3723
      3721      3720      3722      3721      3720      3723      3722      3720      3723
      3720      3723      3724      3720      3723      3725      3720      3723      3726
      3724      3723      3725      3724      3723      3726      3725      3723      3726
      3728      3727      3731      3728      3727      3735      3728      3727      3739
      3731      3727      3735      3731      3727      3739      3735      3727      3739
      3727      3728      3729      3727      3728      3730      3727      3728      3743
      3729      3728      3730      3729      3728      3743      3730      3728      3743
      3727      3731      3732      3727      3731      3733      3727      3731      3734
      3732      3731      3733      3732      3731      3734      3733      3731      3734
      3727      3735      3736      3727      3735      3737      3727      3735      3738
      3736      3735      3737      3736      3735      3738      3737      3735      3738
      3727      3739      3740      3727      3739      3741      3727      3739      3742
      3740      3739      3741      3740      3739      3742      3741      3739      3742
      3728      3743      3744      3728      3743      3745      3728      3743      3749
      3744      3743      3745      3744      3743      3749      3745      3743      3749
      3747      3746      3748      3747      3746      3749      3747      3746      3750
      3748      3746      3749      3748      3746      3750      3749      3746      3750
      3743      3749      3746      3746      3750      3751      3750      3751      3752
      3750      3751      3753      3750      3751      3754      3752      3751      3753
      3752      3751      3754      3753      3751      3754      3751      3754      3755
      3751      3754      3756      3751      3754      3762      3755      3754      3756
      3755      3754      3762      3756      3754      3762      3754      3756      3757
      3756      3757      3758      3756      3757      3759      3758      3757      3759
      3757      3759      3760      3757      3759      3761      3757      3759      3771
      3760      3759      3761      3760      3759      3771      3761      3759      3771
      3754      3762      3763      3754      3762      3764      3754      3762      3765
      3763      3762      3764      3763      3762      3765      3764      3762      3765
      3762      3765      3766      3765      3766      3767      3765      3766      3768
      3767      3766      3768      3766      3768      3769      3766      3768      3770
      3766      3768      3818      3769      3768      3770      3769      3768      3818
      3770      3768      3818      3759      3771      3772      3759      3771      3773
      3759      3771      3774      3772      3771      3773      3772      3771      3774
      3773      3771      3774      3771      3774      3775      3771      3774      3776
      3771      3774      3777      3775      3774      3776      3775      3774      3777
      3776      3774      3777      3774      3777      3778      3774      3777      3779
      3774      3777      3780      3778      3777      3779      3778      3777      3780
      3779      3777      3780      3777      3780      3781      3777      3780      3782
      3777      3780      3783      3781      3780      3782      3781      3780      3783
      3782      3780      3783      3780      3783      3784      3780      3783      3785
      3780      3783      3786      3784      3783      3785      3784      3783      3786
      3785      3783      3786      3783      3786      3787      3783      3786      3788
      3783      3786      3789      3787      3786      3788      3787      3786      3789
      3788      3786      3789      3786      3789      3790      3786      3789      3791
      3790      3789      3791      3789      3791      3792      3789      3791      3793
      3792      3791      3793      3791      3793      3794      3791      3793      3795
      3791      3793      3796      3794      3793      3795      3794      3793      3796
      3795      3793      3796      3793      3796      3797      3793      3796      3798
      3793      3796      3799      3797      3796      3798      3797      3796      3799
      3798      3796      3799      3796      3799      3800      3796      3799      3801
      3796      3799      3802      3800      3799      3801      3800      3799      3802
      3801      3799      3802      3799      3802      3803      3799      3802      3804
      3799      3802      3805      3803      3802      3804      3803      3802      3805
      3804      3802      3805      3802      3805      3806      3802      3805      3807
      3802      3805      3808      3806      3805      3807      3806      3805      3808
      3807      3805      3808      3805      3808      3809      3805      3808      3810
      3805      3808      3811      3809      3808      3810      3809      3808      3811
      3810      3808      3811      3808      3811      3812      3808      3811      3813
      3808      3811      3814      3812      3811      3813      3812      3811      3814
      3813      3811      3814      3811      3814      3815      3811      3814      3816
      3811      3814      3817      3815      3814      3816      3815      3814      3817
      3816      3814      3817      3768      3818      3819      3768      3818      3820
      3768      3818      3821      3819      3818      3820      3819      3818      3821
      3820      3818      3821      3818      3821      3822      3818      3821      3823
      3818      3821      3824      3822      3821      3823      3822      3821      3824
      3823      3821      3824      3821      3824      3825      3821      3824      3826
      3821      3824      3827      3825      3824      3826      3825      3824      3827
      3826      3824      3827      3824      3827      3828      3824      3827      3829
      3824      3827      3830      3828      3827      3829      3828      3827      3830
      3829      3827      3830      3827      3830      3831      3827      3830      3832
      3827      3830      3833      3831      3830      3832      3831      3830      3833
      3832      3830      3833      3830      3833      3834      3830      3833      3835
      3830      3833      3836      3834      3833      3835      3834      3833      3836
      3835      3833      3836      3833      3836      3837      3833      3836      3838
      3837      3836      3838      3836      3838      3839      3836      3838      3840
      3839      3838      3840      3838      3840      3841      3838      3840      3842
      3838      3840      3843      3841      3840      3842      3841      3840      3843
      3842      3840      3843      3840      3843      3844      3840      3843      3845
      3840      3843      3846      3844      3843      3845      3844      3843      3846
      3845      3843      3846      3843      3846      3847      3843      3846      3848
      3843      3846      3849      3847      3846      3848      3847      3846      3849
      3848      3846      3849      3846      3849      3850      3846      3849      3851
      3846      3849      3852      3850      3849      3851      3850      3849      3852
      3851      3849      3852      3849      3852      3853      3849      3852      3854
      3849      3852      3855      3853      3852      3854      3853      3852      3855
      3854      3852      3855      3852      3855      3856      3852      3855      3857
      3852      3855      3858      3856      3855      3857      3856      3855      3858
      3857      3855      3858      3855      3858      3859      3855      3858      3860
      3855      3858      3861      3859      3858      3860      3859      3858      3861
      3860      3858      3861      3858      3861      3862      3858      3861      3863
      3858      3861      3864      3862      3861      3863      3862      3861      3864
      3863      3861      3864      3866      3865      3869      3866      3865      3873
      3866      3865      3877      3869      3865      3873      3869      3865      3877
      3873      3865      3877      3865      3866      3867      3865      3866      3868
      3865      3866      3881      3867      3866      3868      3867      3866      3881
      3868      3866      3881      3865      3869      3870      3865      3869      3871
      3865      3869      3872      3870      3869      3871      3870      3869      3872
      3871      3869      3872      3865      3873      3874      3865      3873      3875
      3865      3873      3876      3874      3873      3875      3874      3873      3876
      3875      3873      3876      3865      3877      3878      3865      3877      3879
      3865      3877      3880      3878      3877      3879      3878      3877      3880
      3879      3877      3880      3866      3881      3882      3866      3881      3883
      3866      3881      3887      3882      3881      3883      3882      3881      3887
      3883      3881      3887      3885      3884      3886      3885      3884      3887
      3885      3884      3888      3886      3884      3887      3886      3884      3888
      3887      3884      3888      3881      3887      3884      3884      3888      3889
      3888      3889      3890      3888      3889      3891      3888      3889      3892
      3890      3889      3891      3890      3889      3892      3891      3889      3892
      3889      3892      3893      3889      3892      3894      3889      3892      3900
      3893      3892      3894      3893      3892      3900      3894      3892      3900
      3892      3894      3895      3894      3895      3896      3894      3895      3897
      3896      3895      3897      3895      3897      3898      3895      3897      3899
      3895      3897      3909      3898      3897      3899      3898      3897      3909
      3899      3897      3909      3892      3900      3901      3892      3900      3902
      3892      3900      3903      3901      3900      3902      3901      3900      3903
      3902      3900      3903      3900      3903      3904      3903      3904      3905
      3903      3904      3906      3905      3904      3906      3904      3906      3907
      3904      3906      3908      3904      3906      3956      3907      3906      3908
      3907      3906      3956      3908      3906      3956      3897      3909      3910
      3897      3909      3911      3897      3909      3912      3910      3909      3911
      3910      3909      3912      3911      3909      3912      3909      3912      3913
      3909      3912      3914      3909      3912      3915      3913      3912      3914
      3913      3912      3915      3914      3912      3915      3912      3915      3916
      3912      3915      3917      3912      3915      3918      3916      3915      3917
      3916      3915      3918      3917      3915      3918      3915      3918      3919
      3915      3918      3920      3915      3918      3921      3919      3918      3920
      3919      3918      3921      3920      3918      3921      3918      3921      3922
      3918      3921      3923      3918      3921      3924      3922      3921      3923
      3922      3921      3924      3923      3921      3924      3921      3924      3925
      3921      3924      3926      3921      3924      3927      3925      3924      3926
      3925      3924      3927      3926      3924      3927      3924      3927      3928
      3924      3927      3929      3928      3927      3929      3927      3929      3930
      3927      3929      3931      3930      3929      3931      3929      3931      3932
      3929      3931      3933      3929      3931      3934      3932      3931      3933
      3932      3931      3934      3933      3931      3934      3931      3934      3935
      3931      3934      3936      3931      3934      3937      3935      3934      3936
      3935      3934      3937      3936      3934      3937      3934      3937      3938
      3934      3937      3939      3934      3937      3940      3938      3937      3939
      3938      3937      3940      3939      3937      3940      3937      3940      3941
      3937      3940      3942      3937      3940      3943      3941      3940      3942
      3941      3940      3943      3942      3940      3943      3940      3943      3944
      3940      3943      3945      3940      3943      3946      3944      3943      3945
      3944      3943      3946      3945      3943      3946      3943      3946      3947
      3943      3946      3948      3943      3946      3949      3947      3946      3948
      3947      3946      3949      3948      3946      3949      3946      3949      3950
      3946      3949      3951      3946      3949      3952      3950      3949      3951
      3950      3949      3952      3951      3949      3952      3949      3952      3953
      3949      3952      3954      3949      3952      3955      3953      3952      3954
      3953      3952      3955      3954      3952      3955      3906      3956      3957
      3906      3956      3958      3906      3956      3959      3957      3956      3958
      3957      3956      3959      3958      3956      3959      3956      3959      3960
      3956      3959      3961      3956      3959      3962      3960      3959      3961
      3960      3959      3962      3961      3959      3962      3959      3962      3963
      3959      3962      3964      3959      3962      3965      3963      3962      3964
      3963      3962      3965      3964      3962      3965      3962      3965      3966
      3962      3965      3967      3962      3965      3968      3966      3965      3967
      3966      3965      3968      3967      3965      3968      3965      3968      3969
      3965      3968      3970      3965      3968      3971      3969      3968      3970
      3969      3968      3971      3970      3968      3971      3968      3971      3972
      3968      3971      3973      3968      3971      3974      3972      3971      3973
      3972      3971      3974      3973      3971      3974      3971      3974      3975
      3971      3974      3976      3975      3974      3976      3974      3976      3977
      3974      3976      3978      3977      3976      3978      3976      3978      3979
      3976      3978      3980      3976      3978      3981      3979      3978      3980
      3979      3978      3981      3980      3978      3981      3978      3981      3982
      3978      3981      3983      3978      3981      3984      3982      3981      3983
      3982      3981      3984      3983      3981      3984      3981      3984      3985
      3981      3984      3986      3981      3984      3987      3985      3984      3986
      3985      3984      3987      3986      3984      3987      3984      3987      3988
      3984      3987      3989      3984      3987      3990      3988      3987      3989
      3988      3987      3990      3989      3987      3990      3987      3990      3991
      3987      3990      3992      3987      3990      3993      3991      3990      3992
      3991      3990      3993      3992      3990      3993      3990      3993      3994
      3990      3993      3995      3990      3993      3996      3994      3993      3995
      3994      3993      3996      3995      3993      3996      3993      3996      3997
      3993      3996      3998      3993      3996      3999      3997      3996      3998
      3997      3996      3999      3998      3996      3999      3996      3999      4000
      3996      3999      4001      3996      3999      4002      4000      3999      4001
      4000      3999      4002      4001      3999      4002      4004      4003      4007
      4004      4003      4011      4004      4003      4015      4007      4003      4011
      4007      4003      4015      4011      4003      4015      4003      4004      4005
      4003      4004      4006      4003      4004      4019      4005      4004      4006
      4005      4004      4019      4006      4004      4019      4003      4007      4008
      4003      4007      4009      4003      4007      4010      4008      4007      4009
      4008      4007      4010      4009      4007      4010      4003      4011      4012
      4003      4011      4013      4003      4011      4014      4012      4011      4013
      4012      4011      4014      4013      4011      4014      4003      4015      4016
      4003      4015      4017      4003      4015      4018      4016      4015      4017
      4016      4015      4018      4017      4015      4018      4004      4019      4020
      4004      4019      4021      4004      4019      4025      4020      4019      4021
      4020      4019      4025      4021      4019      4025      4023      4022      4024
      4023      4022      4025      4023      4022      4026      4024      4022      4025
      4024      4022      4026      4025      4022      4026      4019      4025      4022
      4022      4026      4027      4026      4027      4028      4026      4027      4029
      4026      4027      4030      4028      4027      4029      4028      4027      4030
      4029      4027      4030      4027      4030      4031      4027      4030      4032
      4027      4030      4038      4031      4030      4032      4031      4030      4038
      4032      4030      4038      4030      4032      4033      4032      4033      4034
      4032      4033      4035      4034      4033      4035      4033      4035      4036
      4033      4035      4037      4033      4035      4047      4036      4035      4037
      4036      4035      4047      4037      4035      4047      4030      4038      4039
      4030      4038      4040      4030      4038      4041      4039      4038      4040
      4039      4038      4041      4040      4038      4041      4038      4041      4042
      4041      4042      4043      4041      4042      4044      4043      4042      4044
      4042      4044      4045      4042      4044      4046      4042      4044      4094
      4045      4044      4046      4045      4044      4094      4046      4044      4094
      4035      4047      4048      4035      4047      4049      4035      4047      4050
      4048      4047      4049      4048      4047      4050      4049      4047      4050
      4047      4050      4051      4047      4050      4052      4047      4050      4053
      4051      4050      4052      4051      4050      4053      4052      4050      4053
      4050      4053      4054      4050      4053      4055      4050      4053      4056
      4054      4053      4055      4054      4053      4056      4055      4053      4056
      4053      4056      4057      4053      4056      4058      4053      4056      4059
      4057      4056      4058      4057      4056      4059      4058      4056      4059
      4056      4059      4060      4056      4059      4061      4056      4059      4062
      4060      4059      4061      4060      4059      4062      4061      4059      4062
      4059      4062      4063      4059      4062      4064      4059      4062      4065
      4063      4062      4064      4063      4062      4065      4064      4062      4065
      4062      4065      4066      4062      4065      4067      4066      4065      4067
      4065      4067      4068      4065      4067      4069      4068      4067      4069
      4067      4069      4070      4067      4069      4071      4067      4069      4072
      4070      4069      4071      4070      4069      4072      4071      4069      4072
      4069      4072      4073      4069      4072      4074      4069      4072      4075
      4073      4072      4074      4073      4072      4075      4074      4072      4075
      4072      4075      4076      4072      4075      4077      4072      4075      4078
      4076      4075      4077      4076      4075      4078      4077      4075      4078
      4075      4078      4079      4075      4078      4080      4075      4078      4081
      4079      4078      4080      4079      4078      4081      4080      4078      4081
      4078      4081      4082      4078      4081      4083      4078      4081      4084
      4082      4081      4083      4082      4081      4084      4083      4081      4084
      4081      4084      4085      4081      4084      4086      4081      4084      4087
      4085      4084      4086      4085      4084      4087      4086      4084      4087
      4084      4087      4088      4084      4087      4089      4084      4087      4090
      4088      4087      4089      4088      4087      4090      4089      4087      4090
      4087      4090      4091      4087      4090      4092      4087      4090      4093
      4091      4090      4092      4091      4090      4093      4092      4090      4093
      4044      4094      4095      4044      4094      4096      4044      4094      4097
      4095      4094      4096      4095      4094      4097      4096      4094      4097
      4094      4097      4098      4094      4097      4099      4094      4097      4100
      4098      4097      4099      4098      4097      4100      4099      4097      4100
      4097      4100      4101      4097      4100      4102      4097      4100      4103
      4101      4100      4102      4101      4100      4103      4102      4100      4103
      4100      4103      4104      4100      4103      4105      4100      4103      4106
      4104      4103      4105      4104      4103      4106      4105      4103      4106
      4103      4106      4107      4103      4106      4108      4103      4106      4109
      4107      4106      4108      4107      4106      4109      4108      4106      4109
      4106      4109      4110      4106      4109      4111      4106      4109      4112
      4110      4109      4111      4110      4109      4112      4111      4109      4112
      4109      4112      4113      4109      4112      4114      4113      4112      4114
      4112      4114      4115      4112      4114      4116      4115      4114      4116
      4114      4116      4117      4114      4116      4118      4114      4116      4119
      4117      4116      4118      4117      4116      4119      4118      4116      4119
      4116      4119      4120      4116      4119      4121      4116      4119      4122
      4120      4119      4121      4120      4119      4122      4121      4119      4122
      4119      4122      4123      4119      4122      4124      4119      4122      4125
      4123      4122      4124      4123      4122      4125      4124      4122      4125
      4122      4125      4126      4122      4125      4127      4122      4125      4128
      4126      4125      4127      4126      4125      4128      4127      4125      4128
      4125      4128      4129      4125      4128      4130      4125      4128      4131
      4129      4128      4130      4129      4128      4131      4130      4128      4131
      4128      4131      4132      4128      4131      4133      4128      4131      4134
      4132      4131      4133      4132      4131      4134      4133      4131      4134
      4131      4134      4135      4131      4134      4136      4131      4134      4137
      4135      4134      4136      4135      4134      4137      4136      4134      4137
      4134      4137      4138      4134      4137      4139      4134      4137      4140
      4138      4137      4139      4138      4137      4140      4139      4137      4140
      4142      4141      4145      4142      4141      4149      4142      4141      4153
      4145      4141      4149      4145      4141      4153      4149      4141      4153
      4141      4142      4143      4141      4142      4144      4141      4142      4157
      4143      4142      4144      4143      4142      4157      4144      4142      4157
      4141      4145      4146      4141      4145      4147      4141      4145      4148
      4146      4145      4147      4146      4145      4148      4147      4145      4148
      4141      4149      4150      4141      4149      4151      4141      4149      4152
      4150      4149      4151      4150      4149      4152      4151      4149      4152
      4141      4153      4154      4141      4153      4155      4141      4153      4156
      4154      4153      4155      4154      4153      4156      4155      4153      4156
      4142      4157      4158      4142      4157      4159      4142      4157      4163
      4158      4157      4159      4158      4157      4163      4159      4157      4163
      4161      4160      4162      4161      4160      4163      4161      4160      4164
      4162      4160      4163      4162      4160      4164      4163      4160      4164
      4157      4163      4160      4160      4164      4165      4164      4165      4166
      4164      4165      4167      4164      4165      4168      4166      4165      4167
      4166      4165      4168      4167      4165      4168      4165      4168      4169
      4165      4168      4170      4165      4168      4176      4169      4168      4170
      4169      4168      4176      4170      4168      4176      4168      4170      4171
      4170      4171      4172      4170      4171      4173      4172      4171      4173
      4171      4173      4174      4171      4173      4175      4171      4173      4185
      4174      4173      4175      4174      4173      4185      4175      4173      4185
      4168      4176      4177      4168      4176      4178      4168      4176      4179
      4177      4176      4178      4177      4176      4179      4178      4176      4179
      4176      4179      4180      4179      4180      4181      4179      4180      4182
      4181      4180      4182      4180      4182      4183      4180      4182      4184
      4180      4182      4232      4183      4182      4184      4183      4182      4232
      4184      4182      4232      4173      4185      4186      4173      4185      4187
      4173      4185      4188      4186      4185      4187      4186      4185      4188
      4187      4185      4188      4185      4188      4189      4185      4188      4190
      4185      4188      4191      4189      4188      4190      4189      4188      4191
      4190      4188      4191      4188      4191      4192      4188      4191      4193
      4188      4191      4194      4192      4191      4193      4192      4191      4194
      4193      4191      4194      4191      4194      4195      4191      4194      4196
      4191      4194      4197      4195      4194      4196      4195      4194      4197
      4196      4194      4197      4194      4197      4198      4194      4197      4199
      4194      4197      4200      4198      4197      4199      4198      4197      4200
      4199      4197      4200      4197      4200      4201      4197      4200      4202
      4197      4200      4203      4201      4200      4202      4201      4200      4203
      4202      4200      4203      4200      4203      4204      4200      4203      4205
      4204      4203      4205      4203      4205      4206      4203      4205      4207
      4206      4205      4207      4205      4207      4208      4205      4207      4209
      4205      4207      4210      4208      4207      4209      4208      4207      4210
      4209      4207      4210      4207      4210      4211      4207      4210      4212
      4207      4210      4213      4211      4210      4212      4211      4210      4213
      4212      4210      4213      4210      4213      4214      4210      4213      4215
      4210      4213      4216      4214      4213      4215      4214      4213      4216
      4215      4213      4216      4213      4216      4217      4213      4216      4218
      4213      4216      4219      4217      4216      4218      4217      4216      4219
      4218      4216      4219      4216      4219      4220      4216      4219      4221
      4216      4219      4222      4220      4219      4221      4220      4219      4222
      4221      4219      4222      4219      4222      4223      4219      4222      4224
      4219      4222      4225      4223      4222      4224      4223      4222      4225
      4224      4222      4225      4222      4225      4226      4222      4225      4227
      4222      4225      4228      4226      4225      4227      4226      4225      4228
      4227      4225      4228      4225      4228      4229      4225      4228      4230
      4225      4228      4231      4229      4228      4230      4229      4228      4231
      4230      4228      4231      4182      4232      4233      4182      4232      4234
      4182      4232      4235      4233      4232      4234      4233      4232      4235
      4234      4232      4235      4232      4235      4236      4232      4235      4237
      4232      4235      4238      4236      4235      4237      4236      4235      4238
      4237      4235      4238      4235      4238      4239      4235      4238      4240
      4235      4238      4241      4239      4238      4240      4239      4238      4241
      4240      4238      4241      4238      4241      4242      4238      4241      4243
      4238      4241      4244      4242      4241      4243      4242      4241      4244
      4243      4241      4244      4241      4244      4245      4241      4244      4246
      4241      4244      4247      4245      4244      4246      4245      4244      4247
      4246      4244      4247      4244      4247      4248      4244      4247      4249
      4244      4247      4250      4248      4247      4249      4248      4247      4250
      4249      4247      4250      4247      4250      4251      4247      4250      4252
      4251      4250      4252      4250      4252      4253      4250      4252      4254
      4253      4252      4254      4252      4254      4255      4252      4254      4256
      4252      4254      4257      4255      4254      4256      4255      4254      4257
      4256      4254      4257      4254      4257      4258      4254      4257      4259
      4254      4257      4260      4258      4257      4259      4258      4257      4260
      4259      4257      4260      4257      4260      4261      4257      4260      4262
      4257      4260      4263      4261      4260      4262      4261      4260      4263
      4262      4260      4263      4260      4263      4264      4260      4263      4265
      4260      4263      4266      4264      4263      4265      4264      4263      4266
      4265      4263      4266      4263      4266      4267      4263      4266      4268
      4263      4266      4269      4267      4266      4268      4267      4266      4269
      4268      4266      4269      4266      4269      4270      4266      4269      4271
      4266      4269      4272      4270      4269      4271      4270      4269      4272
      4271      4269      4272      4269      4272      4273      4269      4272      4274
      4269      4272      4275      4273      4272      4274      4273      4272      4275
      4274      4272      4275      4272      4275      4276      4272      4275      4277
      4272      4275      4278      4276      4275      4277      4276      4275      4278
      4277      4275      4278      4280      4279      4283      4280      4279      4287
      4280      4279      4291      4283      4279      4287      4283      4279      4291
      4287      4279      4291      4279      4280      4281      4279      4280      4282
      4279      4280      4295      4281      4280      4282      4281      4280      4295
      4282      4280      4295      4279      4283      4284      4279      4283      4285
      4279      4283      4286      4284      4283      4285      4284      4283      4286
      4285      4283      4286      4279      4287      4288      4279      4287      4289
      4279      4287      4290      4288      4287      4289      4288      4287      4290
      4289      4287      4290      4279      4291      4292      4279      4291      4293
      4279      4291      4294      4292      4291      4293      4292      4291      4294
      4293      4291      4294      4280      4295      4296      4280      4295      4297
      4280      4295      4301      4296      4295      4297      4296      4295      4301
      4297      4295      4301      4299      4298      4300      4299      4298      4301
      4299      4298      4302      4300      4298      4301      4300      4298      4302
      4301      4298      4302      4295      4301      4298      4298      4302      4303
      4302      4303      4304      4302      4303      4305      4302      4303      4306
      4304      4303      4305      4304      4303      4306      4305      4303      4306
      4303      4306      4307      4303      4306      4308      4303      4306      4314
      4307      4306      4308      4307      4306      4314      4308      4306      4314
      4306      4308      4309      4308      4309      4310      4308      4309      4311
      4310      4309      4311      4309      4311      4312      4309      4311      4313
      4309      4311      4323      4312      4311      4313      4312      4311      4323
      4313      4311      4323      4306      4314      4315      4306      4314      4316
      4306      4314      4317      4315      4314      4316      4315      4314      4317
      4316      4314      4317      4314      4317      4318      4317      4318      4319
      4317      4318      4320      4319      4318      4320      4318      4320      4321
      4318      4320      4322      4318      4320      4370      4321      4320      4322
      4321      4320      4370      4322      4320      4370      4311      4323      4324
      4311      4323      4325      4311      4323      4326      4324      4323      4325
      4324      4323      4326      4325      4323      4326      4323      4326      4327
      4323      4326      4328      4323      4326      4329      4327      4326      4328
      4327      4326      4329      4328      4326      4329      4326      4329      4330
      4326      4329      4331      4326      4329      4332      4330      4329      4331
      4330      4329      4332      4331      4329      4332      4329      4332      4333
      4329      4332      4334      4329      4332      4335      4333      4332      4334
      4333      4332      4335      4334      4332      4335      4332      4335      4336
      4332      4335      4337      4332      4335      4338      4336      4335      4337
      4336      4335      4338      4337      4335      4338      4335      4338      4339
      4335      4338      4340      4335      4338      4341      4339      4338      4340
      4339      4338      4341      4340      4338      4341      4338      4341      4342
      4338      4341      4343      4342      4341      4343      4341      4343      4344
      4341      4343      4345      4344      4343      4345      4343      4345      4346
      4343      4345      4347      4343      4345      4348      4346      4345      4347
      4346      4345      4348      4347      4345      4348      4345      4348      4349
      4345      4348      4350      4345      4348      4351      4349      4348      4350
      4349      4348      4351      4350      4348      4351      4348      4351      4352
      4348      4351      4353      4348      4351      4354      4352      4351      4353
      4352      4351      4354      4353      4351      4354      4351      4354      4355
      4351      4354      4356      4351      4354      4357      4355      4354      4356
      4355      4354      4357      4356      4354      4357      4354      4357      4358
      4354      4357      4359      4354      4357      4360      4358      4357      4359
      4358      4357      4360      4359      4357      4360      4357      4360      4361
      4357      4360      4362      4357      4360      4363      4361      4360      4362
      4361      4360      4363      4362      4360      4363      4360      4363      4364
      4360      4363      4365      4360      4363      4366      4364      4363      4365
      4364      4363      4366      4365      4363      4366      4363      4366      4367
      4363      4366      4368      4363      4366      4369      4367      4366      4368
      4367      4366      4369      4368      4366      4369      4320      4370      4371
      4320      4370      4372      4320      4370      4373      4371      4370      4372
      4371      4370      4373      4372      4370      4373      4370      4373      4374
      4370      4373      4375      4370      4373      4376      4374      4373      4375
      4374      4373      4376      4375      4373      4376      4373      4376      4377
      4373      4376      4378      4373      4376      4379      4377      4376      4378
      4377      4376      4379      4378      4376      4379      4376      4379      4380
      4376      4379      4381      4376      4379      4382      4380      4379      4381
      4380      4379      4382      4381      4379      4382      4379      4382      4383
      4379      4382      4384      4379      4382      4385      4383      4382      4384
      4383      4382      4385      4384      4382      4385      4382      4385      4386
      4382      4385      4387      4382      4385      4388      4386      4385      4387
      4386      4385      4388      4387      4385      4388      4385      4388      4389
      4385      4388      4390      4389      4388      4390      4388      4390      4391
      4388      4390      4392      4391      4390      4392      4390      4392      4393
      4390      4392      4394      4390      4392      4395      4393      4392      4394
      4393      4392      4395      4394      4392      4395      4392      4395      4396
      4392      4395      4397      4392      4395      4398      4396      4395      4397
      4396      4395      4398      4397      4395      4398      4395      4398      4399
      4395      4398      4400      4395      4398      4401      4399      4398      4400
      4399      4398      4401      4400      4398      4401      4398      4401      4402
      4398      4401      4403      4398      4401      4404      4402      4401      4403
      4402      4401      4404      4403      4401      4404      4401      4404      4405
      4401      4404      4406      4401      4404      4407      4405      4404      4406
      4405      4404      4407      4406      4404      4407      4404      4407      4408
      4404      4407      4409      4404      4407      4410      4408      4407      4409
      4408      4407      4410      4409      4407      4410      4407      4410      4411
      4407      4410      4412      4407      4410      4413      4411      4410      4412
      4411      4410      4413      4412      4410      4413      4410      4413      4414
      4410      4413      4415      4410      4413      4416      4414      4413      4415
      4414      4413      4416      4415      4413      4416      4418      4417      4421
      4418      4417      4425      4418      4417      4429      4421      4417      4425
      4421      4417      4429      4425      4417      4429      4417      4418      4419
      4417      4418      4420      4417      4418      4433      4419      4418      4420
      4419      4418      4433      4420      4418      4433      4417      4421      4422
      4417      4421      4423      4417      4421      4424      4422      4421      4423
      4422      4421      4424      4423      4421      4424      4417      4425      4426
      4417      4425      4427      4417      4425      4428      4426      4425      4427
      4426      4425      4428      4427      4425      4428      4417      4429      4430
      4417      4429      4431      4417      4429      4432      4430      4429      4431
      4430      4429      4432      4431      4429      4432      4418      4433      4434
      4418      4433      4435      4418      4433      4439      4434      4433      4435
      4434      4433      4439      4435      4433      4439      4437      4436      4438
      4437      4436      4439      4437      4436      4440      4438      4436      4439
      4438      4436      4440      4439      4436      4440      4433      4439      4436
      4436      4440      4441      4440      4441      4442      4440      4441      4443
      4440      4441      4444      4442      4441      4443      4442      4441      4444
      4443      4441      4444      4441      4444      4445      4441      4444      4446
      4441      4444      4452      4445      4444      4446      4445      4444      4452
      4446      4444      4452      4444      4446      4447      4446      4447      4448
      4446      4447      4449      4448      4447      4449      4447      4449      4450
      4447      4449      4451      4447      4449      4461      4450      4449      4451
      4450      4449      4461      4451      4449      4461      4444      4452      4453
      4444      4452      4454      4444      4452      4455      4453      4452      4454
      4453      4452      4455      4454      4452      4455      4452      4455      4456
      4455      4456      4457      4455      4456      4458      4457      4456      4458
      4456      4458      4459      4456      4458      4460      4456      4458      4508
      4459      4458      4460      4459      4458      4508      4460      4458      4508
      4449      4461      4462      4449      4461      4463      4449      4461      4464
      4462      4461      4463      4462      4461      4464      4463      4461      4464
      4461      4464      4465      4461      4464      4466      4461      4464      4467
      4465      4464      4466      4465      4464      4467      4466      4464      4467
      4464      4467      4468      4464      4467      4469      4464      4467      4470
      4468      4467      4469      4468      4467      4470      4469      4467      4470
      4467      4470      4471      4467      4470      4472      4467      4470      4473
      4471      4470      4472      4471      4470      4473      4472      4470      4473
      4470      4473      4474      4470      4473      4475      4470      4473      4476
      4474      4473      4475      4474      4473      4476      4475      4473      4476
      4473      4476      4477      4473      4476      4478      4473      4476      4479
      4477      4476      4478      4477      4476      4479      4478      4476      4479
      4476      4479      4480      4476      4479      4481      4480      4479      4481
      4479      4481      4482      4479      4481      4483      4482      4481      4483
      4481      4483      4484      4481      4483      4485      4481      4483      4486
      4484      4483      4485      4484      4483      4486      4485      4483      4486
      4483      4486      4487      4483      4486      4488      4483      4486      4489
      4487      4486      4488      4487      4486      4489      4488      4486      4489
      4486      4489      4490      4486      4489      4491      4486      4489      4492
      4490      4489      4491      4490      4489      4492      4491      4489      4492
      4489      4492      4493      4489      4492      4494      4489      4492      4495
      4493      4492      4494      4493      4492      4495      4494      4492      4495
      4492      4495      4496      4492      4495      4497      4492      4495      4498
      4496      4495      4497      4496      4495      4498      4497      4495      4498
      4495      4498      4499      4495      4498      4500      4495      4498      4501
      4499      4498      4500      4499      4498      4501      4500      4498      4501
      4498      4501      4502      4498      4501      4503      4498      4501      4504
      4502      4501      4503      4502      4501      4504      4503      4501      4504
      4501      4504      4505      4501      4504      4506      4501      4504      4507
      4505      4504      4506      4505      4504      4507      4506      4504      4507
      4458      4508      4509      4458      4508      4510      4458      4508      4511
      4509      4508      4510      4509      4508      4511      4510      4508      4511
      4508      4511      4512      4508      4511      4513      4508      4511      4514
      4512      4511      4513      4512      4511      4514      4513      4511      4514
      4511      4514      4515      4511      4514      4516      4511      4514      4517
      4515      4514      4516      4515      4514      4517      4516      4514      4517
      4514      4517      4518      4514      4517      4519      4514      4517      4520
      4518      4517      4519      4518      4517      4520      4519      4517      4520
      4517      4520      4521      4517      4520      4522      4517      4520      4523
      4521      4520      4522      4521      4520      4523      4522      4520      4523
      4520      4523      4524      4520      4523      4525      4520      4523      4526
      4524      4523      4525      4524      4523      4526      4525      4523      4526
      4523      4526      4527      4523      4526      4528      4527      4526      4528
      4526      4528      4529      4526      4528      4530      4529      4528      4530
      4528      4530      4531      4528      4530      4532      4528      4530      4533
      4531      4530      4532      4531      4530      4533      4532      4530      4533
      4530      4533      4534      4530      4533      4535      4530      4533      4536
      4534      4533      4535      4534      4533      4536      4535      4533      4536
      4533      4536      4537      4533      4536      4538      4533      4536      4539
      4537      4536      4538      4537      4536      4539      4538      4536      4539
      4536      4539      4540      4536      4539      4541      4536      4539      4542
      4540      4539      4541      4540      4539      4542      4541      4539      4542
      4539      4542      4543      4539      4542      4544      4539      4542      4545
      4543      4542      4544      4543      4542      4545      4544      4542      4545
      4542      4545      4546      4542      4545      4547      4542      4545      4548
      4546      4545      4547      4546      4545      4548      4547      4545      4548
      4545      4548      4549      4545      4548      4550      4545      4548      4551
      4549      4548      4550      4549      4548      4551      4550      4548      4551
      4548      4551      4552      4548      4551      4553      4548      4551      4554
      4552      4551      4553      4552      4551      4554      4553      4551      4554
      4556      4555      4559      4556      4555      4563      4556      4555      4567
      4559      4555      4563      4559      4555      4567      4563      4555      4567
      4555      4556      4557      4555      4556      4558      4555      4556      4571
      4557      4556      4558      4557      4556      4571      4558      4556      4571
      4555      4559      4560      4555      4559      4561      4555      4559      4562
      4560      4559      4561      4560      4559      4562      4561      4559      4562
      4555      4563      4564      4555      4563      4565      4555      4563      4566
      4564      4563      4565      4564      4563      4566      4565      4563      4566
      4555      4567      4568      4555      4567      4569      4555      4567      4570
      4568      4567      4569      4568      4567      4570      4569      4567      4570
      4556      4571      4572      4556      4571      4573      4556      4571      4577
      4572      4571      4573      4572      4571      4577      4573      4571      4577
      4575      4574      4576      4575      4574      4577      4575      4574      4578
      4576      4574      4577      4576      4574      4578      4577      4574      4578
      4571      4577      4574      4574      4578      4579      4578      4579      4580
      4578      4579      4581      4578      4579      4582      4580      4579      4581
      4580      4579      4582      4581      4579      4582      4579      4582      4583
      4579      4582      4584      4579      4582      4590      4583      4582      4584
      4583      4582      4590      4584      4582      4590      4582      4584      4585
      4584      4585      4586      4584      4585      4587      4586      4585      4587
      4585      4587      4588      4585      4587      4589      4585      4587      4599
      4588      4587      4589      4588      4587      4599      4589      4587      4599
      4582      4590      4591      4582      4590      4592      4582      4590      4593
      4591      4590      4592      4591      4590      4593      4592      4590      4593
      4590      4593      4594      4593      4594      4595      4593      4594      4596
      4595      4594      4596      4594      4596      4597      4594      4596      4598
      4594      4596      4646      4597      4596      4598      4597      4596      4646
      4598      4596      4646      4587      4599      4600      4587      4599      4601
      4587      4599      4602      4600      4599      4601      4600      4599      4602
      4601      4599      4602      4599      4602      4603      4599      4602      4604
      4599      4602      4605      4603      4602      4604      4603      4602      4605
      4604      4602      4605      4602      4605      4606      4602      4605      4607
      4602      4605      4608      4606      4605      4607      4606      4605      4608
      4607      4605      4608      4605      4608      4609      4605      4608      4610
      4605      4608      4611      4609      4608      4610      4609      4608      4611
      4610      4608      4611      4608      4611      4612      4608      4611      4613
      4608      4611      4614      4612      4611      4613      4612      4611      4614
      4613      4611      4614      4611      4614      4615      4611      4614      4616
      4611      4614      4617      4615      4614      4616      4615      4614      4617
      4616      4614      4617      4614      4617      4618      4614      4617      4619
      4618      4617      4619      4617      4619      4620      4617      4619      4621
      4620      4619      4621      4619      4621      4622      4619      4621      4623
      4619      4621      4624      4622      4621      4623      4622      4621      4624
      4623      4621      4624      4621      4624      4625      4621      4624      4626
      4621      4624      4627      4625      4624      4626      4625      4624      4627
      4626      4624      4627      4624      4627      4628      4624      4627      4629
      4624      4627      4630      4628      4627      4629      4628      4627      4630
      4629      4627      4630      4627      4630      4631      4627      4630      4632
      4627      4630      4633      4631      4630      4632      4631      4630      4633
      4632      4630      4633      4630      4633      4634      4630      4633      4635
      4630      4633      4636      4634      4633      4635      4634      4633      4636
      4635      4633      4636      4633      4636      4637      4633      4636      4638
      4633      4636      4639      4637      4636      4638      4637      4636      4639
      4638      4636      4639      4636      4639      4640      4636      4639      4641
      4636      4639      4642      4640      4639      4641      4640      4639      4642
      4641      4639      4642      4639      4642      4643      4639      4642      4644
      4639      4642      4645      4643      4642      4644      4643      4642      4645
      4644      4642      4645      4596      4646      4647      4596      4646      4648
      4596      4646      4649      4647      4646      4648      4647      4646      4649
      4648      4646      4649      4646      4649      4650      4646      4649      4651
      4646      4649      4652      4650      4649      4651      4650      4649      4652
      4651      4649      4652      4649      4652      4653      4649      4652      4654
      4649      4652      4655      4653      4652      4654      4653      4652      4655
      4654      4652      4655      4652      4655      4656      4652      4655      4657
      4652      4655      4658      4656      4655      4657      4656      4655      4658
      4657      4655      4658      4655      4658      4659      4655      4658      4660
      4655      4658      4661      4659      4658      4660      4659      4658      4661
      4660      4658      4661      4658      4661      4662      4658      4661      4663
      4658      4661      4664      4662      4661      4663      4662      4661      4664
      4663      4661      4664      4661      4664      4665      4661      4664      4666
      4665      4664      4666      4664      4666      4667      4664      4666      4668
      4667      4666      4668      4666      4668      4669      4666      4668      4670
      4666      4668      4671      4669      4668      4670      4669      4668      4671
      4670      4668      4671      4668      4671      4672      4668      4671      4673
      4668      4671      4674      4672      4671      4673      4672      4671      4674
      4673      4671      4674      4671      4674      4675      4671      4674      4676
      4671      4674      4677      4675      4674      4676      4675      4674      4677
      4676      4674      4677      4674      4677      4678      4674      4677      4679
      4674      4677      4680      4678      4677      4679      4678      4677      4680
      4679      4677      4680      4677      4680      4681      4677      4680      4682
      4677      4680      4683      4681      4680      4682      4681      4680      4683
      4682      4680      4683      4680      4683      4684      4680      4683      4685
      4680      4683      4686      4684      4683      4685      4684      4683      4686
      4685      4683      4686      4683      4686      4687      4683      4686      4688
      4683      4686      4689      4687      4686      4688      4687      4686      4689
      4688      4686      4689      4686      4689      4690      4686      4689      4691
      4686      4689      4692      4690      4689      4691      4690      4689      4692
      4691      4689      4692      4694      4693      4697      4694      4693      4701
      4694      4693      4705      4697      4693      4701      4697      4693      4705
      4701      4693      4705      4693      4694      4695      4693      4694      4696
      4693      4694      4709      4695      4694      4696      4695      4694      4709
      4696      4694      4709      4693      4697      4698      4693      4697      4699
      4693      4697      4700      4698      4697      4699      4698      4697      4700
      4699      4697      4700      4693      4701      4702      4693      4701      4703
      4693      4701      4704      4702      4701      4703      4702      4701      4704
      4703      4701      4704      4693      4705      4706      4693      4705      4707
      4693      4705      4708      4706      4705      4707      4706      4705      4708
      4707      4705      4708      4694      4709      4710      4694      4709      4711
      4694      4709      4715      4710      4709      4711      4710      4709      4715
      4711      4709      4715      4713      4712      4714      4713      4712      4715
      4713      4712      4716      4714      4712      4715      4714      4712      4716
      4715      4712      4716      4709      4715      4712      4712      4716      4717
      4716      4717      4718      4716      4717      4719      4716      4717      4720
      4718      4717      4719      4718      4717      4720      4719      4717      4720
      4717      4720      4721      4717      4720      4722      4717      4720      4728
      4721      4720      4722      4721      4720      4728      4722      4720      4728
      4720      4722      4723      4722      4723      4724      4722      4723      4725
      4724      4723      4725      4723      4725      4726      4723      4725      4727
      4723      4725      4737      4726      4725      4727      4726      4725      4737
      4727      4725      4737      4720      4728      4729      4720      4728      4730
      4720      4728      4731      4729      4728      4730      4729      4728      4731
      4730      4728      4731      4728      4731      4732      4731      4732      4733
      4731      4732      4734      4733      4732      4734      4732      4734      4735
      4732      4734      4736      4732      4734      4784      4735      4734      4736
      4735      4734      4784      4736      4734      4784      4725      4737      4738
      4725      4737      4739      4725      4737      4740      4738      4737      4739
      4738      4737      4740      4739      4737      4740      4737      4740      4741
      4737      4740      4742      4737      4740      4743      4741      4740      4742
      4741      4740      4743      4742      4740      4743      4740      4743      4744
      4740      4743      4745      4740      4743      4746      4744      4743      4745
      4744      4743      4746      4745      4743      4746      4743      4746      4747
      4743      4746      4748      4743      4746      4749      4747      4746      4748
      4747      4746      4749      4748      4746      4749      4746      4749      4750
      4746      4749      4751      4746      4749      4752      4750      4749      4751
      4750      4749      4752      4751      4749      4752      4749      4752      4753
      4749      4752      4754      4749      4752      4755      4753      4752      4754
      4753      4752      4755      4754      4752      4755      4752      4755      4756
      4752      4755      4757      4756      4755      4757      4755      4757      4758
      4755      4757      4759      4758      4757      4759      4757      4759      4760
      4757      4759      4761      4757      4759      4762      4760      4759      4761
      4760      4759      4762      4761      4759      4762      4759      4762      4763
      4759      4762      4764      4759      4762      4765      4763      4762      4764
      4763      4762      4765      4764      4762      4765      4762      4765      4766
      4762      4765      4767      4762      4765      4768      4766      4765      4767
      4766      4765      4768      4767      4765      4768      4765      4768      4769
      4765      4768      4770      4765      4768      4771      4769      4768      4770
      4769      4768      4771      4770      4768      4771      4768      4771      4772
      4768      4771      4773      4768      4771      4774      4772      4771      4773
      4772      4771      4774      4773      4771      4774      4771      4774      4775
      4771      4774      4776      4771      4774      4777      4775      4774      4776
      4775      4774      4777      4776      4774      4777      4774      4777      4778
      4774      4777      4779      4774      4777      4780      4778      4777      4779
      4778      4777      4780      4779      4777      4780      4777      4780      4781
      4777      4780      4782      4777      4780      4783      4781      4780      4782
      4781      4780      4783      4782      4780      4783      4734      4784      4785
      4734      4784      4786      4734      4784      4787      4785      4784      4786
      4785      4784      4787      4786      4784      4787      4784      4787      4788
      4784      4787      4789      4784      4787      4790      4788      4787      4789
      4788      4787      4790      4789      4787      4790      4787      4790      4791
      4787      4790      4792      4787      4790      4793      4791      4790      4792
      4791      4790      4793      4792      4790      4793      4790      4793      4794
      4790      4793      4795      4790      4793      4796      4794      4793      4795
      4794      4793      4796      4795      4793      4796      4793      4796      4797
      4793      4796      4798      4793      4796      4799      4797      4796      4798
      4797      4796      4799      4798      4796      4799      4796      4799      4800
      4796      4799      4801      4796      4799      4802      4800      4799      4801
      4800      4799      4802      4801      4799      4802      4799      4802      4803
      4799      4802      4804      4803      4802      4804      4802      4804      4805
      4802      4804      4806      4805      4804      4806      4804      4806      4807
      4804      4806      4808      4804      4806      4809      4807      4806      4808
      4807      4806      4809      4808      4806      4809      4806      4809      4810
      4806      4809      4811      4806      4809      4812      4810      4809      4811
      4810      4809      4812      4811      4809      4812      4809      4812      4813
      4809      4812      4814      4809      4812      4815      4813      4812      4814
      4813      4812      4815      4814      4812      4815      4812      4815      4816
      4812      4815      4817      4812      4815      4818      4816      4815      4817
      4816      4815      4818      4817      4815      4818      4815      4818      4819
      4815      4818      4820      4815      4818      4821      4819      4818      4820
      4819      4818      4821      4820      4818      4821      4818      4821      4822
      4818      4821      4823      4818      4821      4824      4822      4821      4823
      4822      4821      4824      4823      4821      4824      4821      4824      4825
      4821      4824      4826      4821      4824      4827      4825      4824      4826
      4825      4824      4827      4826      4824      4827      4824      4827      4828
      4824      4827      4829      4824      4827      4830      4828      4827      4829
      4828      4827      4830      4829      4827      4830      4832      4831      4835
      4832      4831      4839      4832      4831      4843      4835      4831      4839
      4835      4831      4843      4839      4831      4843      4831      4832      4833
      4831      4832      4834      4831      4832      4847      4833      4832      4834
      4833      4832      4847      4834      4832      4847      4831      4835      4836
      4831      4835      4837      4831      4835      4838      4836      4835      4837
      4836      4835      4838      4837      4835      4838      4831      4839      4840
      4831      4839      4841      4831      4839      4842      4840      4839      4841
      4840      4839      4842      4841      4839      4842      4831      4843      4844
      4831      4843      4845      4831      4843      4846      4844      4843      4845
      4844      4843      4846      4845      4843      4846      4832      4847      4848
      4832      4847      4849      4832      4847      4853      4848      4847      4849
      4848      4847      4853      4849      4847      4853      4851      4850      4852
      4851      4850      4853      4851      4850      4854      4852      4850      4853
      4852      4850      4854      4853      4850      4854      4847      4853      4850
      4850      4854      4855      4854      4855      4856      4854      4855      4857
      4854      4855      4858      4856      4855      4857      4856      4855      4858
      4857      4855      4858      4855      4858      4859      4855      4858      4860
      4855      4858      4866      4859      4858      4860      4859      4858      4866
      4860      4858      4866      4858      4860      4861      4860      4861      4862
      4860      4861      4863      4862      4861      4863      4861      4863      4864
      4861      4863      4865      4861      4863      4875      4864      4863      4865
      4864      4863      4875      4865      4863      4875      4858      4866      4867
      4858      4866      4868      4858      4866      4869      4867      4866      4868
      4867      4866      4869      4868      4866      4869      4866      4869      4870
      4869      4870      4871      4869      4870      4872      4871      4870      4872
      4870      4872      4873      4870      4872      4874      4870      4872      4922
      4873      4872      4874      4873      4872      4922      4874      4872      4922
      4863      4875      4876      4863      4875      4877      4863      4875      4878
      4876      4875      4877      4876      4875      4878      4877      4875      4878
      4875      4878      4879      4875      4878      4880      4875      4878      4881
      4879      4878      4880      4879      4878      4881      4880      4878      4881
      4878      4881      4882      4878      4881      4883      4878      4881      4884
      4882      4881      4883      4882      4881      4884      4883      4881      4884
      4881      4884      4885      4881      4884      4886      4881      4884      4887
      4885      4884      4886      4885      4884      4887      4886      4884      4887
      4884      4887      4888      4884      4887      4889      4884      4887      4890
      4888      4887      4889      4888      4887      4890      4889      4887      4890
      4887      4890      4891      4887      4890      4892      4887      4890      4893
      4891      4890      4892      4891      4890      4893      4892      4890      4893
      4890      4893      4894      4890      4893      4895      4894      4893      4895
      4893      4895      4896      4893      4895      4897      4896      4895      4897
      4895      4897      4898      4895      4897      4899      4895      4897      4900
      4898      4897      4899      4898      4897      4900      4899      4897      4900
      4897      4900      4901      4897      4900      4902      4897      4900      4903
      4901      4900      4902      4901      4900      4903      4902      4900      4903
      4900      4903      4904      4900      4903      4905      4900      4903      4906
      4904      4903      4905      4904      4903      4906      4905      4903      4906
      4903      4906      4907      4903      4906      4908      4903      4906      4909
      4907      4906      4908      4907      4906      4909      4908      4906      4909
      4906      4909      4910      4906      4909      4911      4906      4909      4912
      4910      4909      4911      4910      4909      4912      4911      4909      4912
      4909      4912      4913      4909      4912      4914      4909      4912      4915
      4913      4912      4914      4913      4912      4915      4914      4912      4915
      4912      4915      4916      4912      4915      4917      4912      4915      4918
      4916      4915      4917      4916      4915      4918      4917      4915      4918
      4915      4918      4919      4915      4918      4920      4915      4918      4921
      4919      4918      4920      4919      4918      4921      4920      4918      4921
      4872      4922      4923      4872      4922      4924      4872      4922      4925
      4923      4922      4924      4923      4922      4925      4924      4922      4925
      4922      4925      4926      4922      4925      4927      4922      4925      4928
      4926      4925      4927      4926      4925      4928      4927      4925      4928
      4925      4928      4929      4925      4928      4930      4925      4928      4931
      4929      4928      4930      4929      4928      4931      4930      4928      4931
      4928      4931      4932      4928      4931      4933      4928      4931      4934
      4932      4931      4933      4932      4931      4934      4933      4931      4934
      4931      4934      4935      4931      4934      4936      4931      4934      4937
      4935      4934      4936      4935      4934      4937      4936      4934      4937
      4934      4937      4938      4934      4937      4939      4934      4937      4940
      4938      4937      4939      4938      4937      4940      4939      4937      4940
      4937      4940      4941      4937      4940      4942      4941      4940      4942
      4940      4942      4943      4940      4942      4944      4943      4942      4944
      4942      4944      4945      4942      4944      4946      4942      4944      4947
      4945      4944      4946      4945      4944      4947      4946      4944      4947
      4944      4947      4948      4944      4947      4949      4944      4947      4950
      4948      4947      4949      4948      4947      4950      4949      4947      4950
      4947      4950      4951      4947      4950      4952      4947      4950      4953
      4951      4950      4952      4951      4950      4953      4952      4950      4953
      4950      4953      4954      4950      4953      4955      4950      4953      4956
      4954      4953      4955      4954      4953      4956      4955      4953      4956
      4953      4956      4957      4953      4956      4958      4953      4956      4959
      4957      4956      4958      4957      4956      4959      4958      4956      4959
      4956      4959      4960      4956      4959      4961      4956      4959      4962
      4960      4959      4961      4960      4959      4962      4961      4959      4962
      4959      4962      4963      4959      4962      4964      4959      4962      4965
      4963      4962      4964      4963      4962      4965      4964      4962      4965
      4962      4965      4966      4962      4965      4967      4962      4965      4968
      4966      4965      4967      4966      4965      4968      4967      4965      4968
      4970      4969      4973      4970      4969      4977      4970      4969      4981
      4973      4969      4977      4973      4969      4981      4977      4969      4981
      4969      4970      4971      4969      4970      4972      4969      4970      4985
      4971      4970      4972      4971      4970      4985      4972      4970      4985
      4969      4973      4974      4969      4973      4975      4969      4973      4976
      4974      4973      4975      4974      4973      4976      4975      4973      4976
      4969      4977      4978      4969      4977      4979      4969      4977      4980
      4978      4977      4979      4978      4977      4980      4979      4977      4980
      4969      4981      4982      4969      4981      4983      4969      4981      4984
      4982      4981      4983      4982      4981      4984      4983      4981      4984
      4970      4985      4986      4970      4985      4987      4970      4985      4991
      4986      4985      4987      4986      4985      4991      4987      4985      4991
      4989      4988      4990      4989      4988      4991      4989      4988      4992
      4990      4988      4991      4990      4988      4992      4991      4988      4992
      4985      4991      4988      4988      4992      4993      4992      4993      4994
      4992      4993      4995      4992      4993      4996      4994      4993      4995
      4994      4993      4996      4995      4993      4996      4993      4996      4997
      4993      4996      4998      4993      4996      5004      4997      4996      4998
      4997      4996      5004      4998      4996      5004      4996      4998      4999
      4998      4999      5000      4998      4999      5001      5000      4999      5001
      4999      5001      5002      4999      5001      5003      4999      5001      5013
      5002      5001      5003      5002      5001      5013      5003      5001      5013
      4996      5004      5005      4996      5004      5006      4996      5004      5007
      5005      5004      5006      5005      5004      5007      5006      5004      5007
      5004      5007      5008      5007      5008      5009      5007      5008      5010
      5009      5008      5010      5008      5010      5011      5008      5010      5012
      5008      5010      5060      5011      5010      5012      5011      5010      5060
      5012      5010      5060      5001      5013      5014      5001      5013      5015
      5001      5013      5016      5014      5013      5015      5014      5013      5016
      5015      5013      5016      5013      5016      5017      5013      5016      5018
      5013      5016      5019      5017      5016      5018      5017      5016      5019
      5018      5016      5019      5016      5019      5020      5016      5019      5021
      5016      5019      5022      5020      5019      5021      5020      5019      5022
      5021      5019      5022      5019      5022      5023      5019      5022      5024
      5019      5022      5025      5023      5022      5024      5023      5022      5025
      5024      5022      5025      5022      5025      5026      5022      5025      5027
      5022      5025      5028      5026      5025      5027      5026      5025      5028
      5027      5025      5028      5025      5028      5029      5025      5028      5030
      5025      5028      5031      5029      5028      5030      5029      5028      5031
      5030      5028      5031      5028      5031      5032      5028      5031      5033
      5032      5031      5033      5031      5033      5034      5031      5033      5035
      5034      5033      5035      5033      5035      5036      5033      5035      5037
      5033      5035      5038      5036      5035      5037      5036      5035      5038
      5037      5035      5038      5035      5038      5039      5035      5038      5040
      5035      5038      5041      5039      5038      5040      5039      5038      5041
      5040      5038      5041      5038      5041      5042      5038      5041      5043
      5038      5041      5044      5042      5041      5043      5042      5041      5044
      5043      5041      5044      5041      5044      5045      5041      5044      5046
      5041      5044      5047      5045      5044      5046      5045      5044      5047
      5046      5044      5047      5044      5047      5048      5044      5047      5049
      5044      5047      5050      5048      5047      5049      5048      5047      5050
      5049      5047      5050      5047      5050      5051      5047      5050      5052
      5047      5050      5053      5051      5050      5052      5051      5050      5053
      5052      5050      5053      5050      5053      5054      5050      5053      5055
      5050      5053      5056      5054      5053      5055      5054      5053      5056
      5055      5053      5056      5053      5056      5057      5053      5056      5058
      5053      5056      5059      5057      5056      5058      5057      5056      5059
      5058      5056      5059      5010      5060      5061      5010      5060      5062
      5010      5060      5063      5061      5060      5062      5061      5060      5063
      5062      5060      5063      5060      5063      5064      5060      5063      5065
      5060      5063      5066      5064      5063      5065      5064      5063      5066
      5065      5063      5066      5063      5066      5067      5063      5066      5068
      5063      5066      5069      5067      5066      5068      5067      5066      5069
      5068      5066      5069      5066      5069      5070      5066      5069      5071
      5066      5069      5072      5070      5069      5071      5070      5069      5072
      5071      5069      5072      5069      5072      5073      5069      5072      5074
      5069      5072      5075      5073      5072      5074      5073      5072      5075
      5074      5072      5075      5072      5075      5076      5072      5075      5077
      5072      5075      5078      5076      5075      5077      5076      5075      5078
      5077      5075      5078      5075      5078      5079      5075      5078      5080
      5079      5078      5080      5078      5080      5081      5078      5080      5082
      5081      5080      5082      5080      5082      5083      5080      5082      5084
      5080      5082      5085      5083      5082      5084      5083      5082      5085
      5084      5082      5085      5082      5085      5086      5082      5085      5087
      5082      5085      5088      5086      5085      5087      5086      5085      5088
      5087      5085      5088      5085      5088      5089      5085      5088      5090
      5085      5088      5091      5089      5088      5090      5089      5088      5091
      5090      5088      5091      5088      5091      5092      5088      5091      5093
      5088      5091      5094      5092      5091      5093      5092      5091      5094
      5093      5091      5094      5091      5094      5095      5091      5094      5096
      5091      5094      5097      5095      5094      5096      5095      5094      5097
      5096      5094      5097      5094      5097      5098      5094      5097      5099
      5094      5097      5100      5098      5097      5099      5098      5097      5100
      5099      5097      5100      5097      5100      5101      5097      5100      5102
      5097      5100      5103      5101      5100      5102      5101      5100      5103
      5102      5100      5103      5100      5103      5104      5100      5103      5105
      5100      5103      5106      5104      5103      5105      5104      5103      5106
      5105      5103      5106      5108      5107      5111      5108      5107      5115
      5108      5107      5119      5111      5107      5115      5111      5107      5119
      5115      5107      5119      5107      5108      5109      5107      5108      5110
      5107      5108      5123      5109      5108      5110      5109      5108      5123
      5110      5108      5123      5107      5111      5112      5107      5111      5113
      5107      5111      5114      5112      5111      5113      5112      5111      5114
      5113      5111      5114      5107      5115      5116      5107      5115      5117
      5107      5115      5118      5116      5115      5117      5116      5115      5118
      5117      5115      5118      5107      5119      5120      5107      5119      5121
      5107      5119      5122      5120      5119      5121      5120      5119      5122
      5121      5119      5122      5108      5123      5124      5108      5123      5125
      5108      5123      5129      5124      5123      5125      5124      5123      5129
      5125      5123      5129      5127      5126      5128      5127      5126      5129
      5127      5126      5130      5128      5126      5129      5128      5126      5130
      5129      5126      5130      5123      5129      5126      5126      5130      5131
      5130      5131      5132      5130      5131      5133      5130      5131      5134
      5132      5131      5133      5132      5131      5134      5133      5131      5134
      5131      5134      5135      5131      5134      5136      5131      5134      5142
      5135      5134      5136      5135      5134      5142      5136      5134      5142
      5134      5136      5137      5136      5137      5138      5136      5137      5139
      5138      5137      5139      5137      5139      5140      5137      5139      5141
      5137      5139      5151      5140      5139      5141      5140      5139      5151
      5141      5139      5151      5134      5142      5143      5134      5142      5144
      5134      5142      5145      5143      5142      5144      5143      5142      5145
      5144      5142      5145      5142      5145      5146      5145      5146      5147
      5145      5146      5148      5147      5146      5148      5146      5148      5149
      5146      5148      5150      5146      5148      5198      5149      5148      5150
      5149      5148      5198      5150      5148      5198      5139      5151      5152
      5139      5151      5153      5139      5151      5154      5152      5151      5153
      5152      5151      5154      5153      5151      5154      5151      5154      5155
      5151      5154      5156      5151      5154      5157      5155      5154      5156
      5155      5154      5157      5156      5154      5157      5154      5157      5158
      5154      5157      5159      5154      5157      5160      5158      5157      5159
      5158      5157      5160      5159      5157      5160      5157      5160      5161
      5157      5160      5162      5157      5160      5163      5161      5160      5162
      5161      5160      5163      5162      5160      5163      5160      5163      5164
      5160      5163      5165      5160      5163      5166      5164      5163      5165
      5164      5163      5166      5165      5163      5166      5163      5166      5167
      5163      5166      5168      5163      5166      5169      5167      5166      5168
      5167      5166      5169      5168      5166      5169      5166      5169      5170
      5166      5169      5171      5170      5169      5171      5169      5171      5172
      5169      5171      5173      5172      5171      5173      5171      5173      5174
      5171      5173      5175      5171      5173      5176      5174      5173      5175
      5174      5173      5176      5175      5173      5176      5173      5176      5177
      5173      5176      5178      5173      5176      5179      5177      5176      5178
      5177      5176      5179      5178      5176      5179      5176      5179      5180
      5176      5179      5181      5176      5179      5182      5180      5179      5181
      5180      5179      5182      5181      5179      5182      5179      5182      5183
      5179      5182      5184      5179      5182      5185      5183      5182      5184
      5183      5182      5185      5184      5182      5185      5182      5185      5186
      5182      5185      5187      5182      5185      5188      5186      5185      5187
      5186      5185      5188      5187      5185      5188      5185      5188      5189
      5185      5188      5190      5185      5188      5191      5189      5188      5190
      5189      5188      5191      5190      5188      5191      5188      5191      5192
      5188      5191      5193      5188      5191      5194      5192      5191      5193
      5192      5191      5194      5193      5191      5194      5191      5194      5195
      5191      5194      5196      5191      5194      5197      5195      5194      5196
      5195      5194      5197      5196      5194      5197      5148      5198      5199
      5148      5198      5200      5148      5198      5201      5199      5198      5200
      5199      5198      5201      5200      5198      5201      5198      5201      5202
      5198      5201      5203      5198      5201      5204      5202      5201      5203
      5202      5201      5204      5203      5201      5204      5201      5204      5205
      5201      5204      5206      5201      5204      5207      5205      5204      5206
      5205      5204      5207      5206      5204      5207      5204      5207      5208
      5204      5207      5209      5204      5207      5210      5208      5207      5209
      5208      5207      5210      5209      5207      5210      5207      5210      5211
      5207      5210      5212      5207      5210      5213      5211      5210      5212
      5211      5210      5213      5212      5210      5213      5210      5213      5214
      5210      5213      5215      5210      5213      5216      5214      5213      5215
      5214      5213      5216      5215      5213      5216      5213      5216      5217
      5213      5216      5218      5217      5216      5218      5216      5218      5219
      5216      5218      5220      5219      5218      5220      5218      5220      5221
      5218      5220      5222      5218      5220      5223      5221      5220      5222
      5221      5220      5223      5222      5220      5223      5220      5223      5224
      5220      5223      5225      5220      5223      5226      5224      5223      5225
      5224      5223      5226      5225      5223      5226      5223      5226      5227
      5223      5226      5228      5223      5226      5229      5227      5226      5228
      5227      5226      5229      5228      5226      5229      5226      5229      5230
      5226      5229      5231      5226      5229      5232      5230      5229      5231
      5230      5229      5232      5231      5229      5232      5229      5232      5233
      5229      5232      5234      5229      5232      5235      5233      5232      5234
      5233      5232      5235      5234      5232      5235      5232      5235      5236
      5232      5235      5237      5232      5235      5238      5236      5235      5237
      5236      5235      5238      5237      5235      5238      5235      5238      5239
      5235      5238      5240      5235      5238      5241      5239      5238      5240
      5239      5238      5241      5240      5238      5241      5238      5241      5242
      5238      5241      5243      5238      5241      5244      5242      5241      5243
      5242      5241      5244      5243      5241      5244      5246      5245      5249
      5246      5245      5253      5246      5245      5257      5249      5245      5253
      5249      5245      5257      5253      5245      5257      5245      5246      5247
      5245      5246      5248      5245      5246      5261      5247      5246      5248
      5247      5246      5261      5248      5246      5261      5245      5249      5250
      5245      5249      5251      5245      5249      5252      5250      5249      5251
      5250      5249      5252      5251      5249      5252      5245      5253      5254
      5245      5253      5255      5245      5253      5256      5254      5253      5255
      5254      5253      5256      5255      5253      5256      5245      5257      5258
      5245      5257      5259      5245      5257      5260      5258      5257      5259
      5258      5257      5260      5259      5257      5260      5246      5261      5262
      5246      5261      5263      5246      5261      5267      5262      5261      5263
      5262      5261      5267      5263      5261      5267      5265      5264      5266
      5265      5264      5267      5265      5264      5268      5266      5264      5267
      5266      5264      5268      5267      5264      5268      5261      5267      5264
      5264      5268      5269      5268      5269      5270      5268      5269      5271
      5268      5269      5272      5270      5269      5271      5270      5269      5272
      5271      5269      5272      5269      5272      5273      5269      5272      5274
      5269      5272      5280      5273      5272      5274      5273      5272      5280
      5274      5272      5280      5272      5274      5275      5274      5275      5276
      5274      5275      5277      5276      5275      5277      5275      5277      5278
      5275      5277      5279      5275      5277      5289      5278      5277      5279
      5278      5277      5289      5279      5277      5289      5272      5280      5281
      5272      5280      5282      5272      5280      5283      5281      5280      5282
      5281      5280      5283      5282      5280      5283      5280      5283      5284
      5283      5284      5285      5283      5284      5286      5285      5284      5286
      5284      5286      5287      5284      5286      5288      5284      5286      5336
      5287      5286      5288      5287      5286      5336      5288      5286      5336
      5277      5289      5290      5277      5289      5291      5277      5289      5292
      5290      5289      5291      5290      5289      5292      5291      5289      5292
      5289      5292      5293      5289      5292      5294      5289      5292      5295
      5293      5292      5294      5293      5292      5295      5294      5292      5295
      5292      5295      5296      5292      5295      5297      5292      5295      5298
      5296      5295      5297      5296      5295      5298      5297      5295      5298
      5295      5298      5299      5295      5298      5300      5295      5298      5301
      5299      5298      5300      5299      5298      5301      5300      5298      5301
      5298      5301      5302      5298      5301      5303      5298      5301      5304
      5302      5301      5303      5302      5301      5304      5303      5301      5304
      5301      5304      5305      5301      5304      5306      5301      5304      5307
      5305      5304      5306      5305      5304      5307      5306      5304      5307
      5304      5307      5308      5304      5307      5309      5308      5307      5309
      5307      5309      5310      5307      5309      5311      5310      5309      5311
      5309      5311      5312      5309      5311      5313      5309      5311      5314
      5312      5311      5313      5312      5311      5314      5313      5311      5314
      5311      5314      5315      5311      5314      5316      5311      5314      5317
      5315      5314      5316      5315      5314      5317      5316      5314      5317
      5314      5317      5318      5314      5317      5319      5314      5317      5320
      5318      5317      5319      5318      5317      5320      5319      5317      5320
      5317      5320      5321      5317      5320      5322      5317      5320      5323
      5321      5320      5322      5321      5320      5323      5322      5320      5323
      5320      5323      5324      5320      5323      5325      5320      5323      5326
      5324      5323      5325      5324      5323      5326      5325      5323      5326
      5323      5326      5327      5323      5326      5328      5323      5326      5329
      5327      5326      5328      5327      5326      5329      5328      5326      5329
      5326      5329      5330      5326      5329      5331      5326      5329      5332
      5330      5329      5331      5330      5329      5332      5331      5329      5332
      5329      5332      5333      5329      5332      5334      5329      5332      5335
      5333      5332      5334      5333      5332      5335      5334      5332      5335
      5286      5336      5337      5286      5336      5338      5286      5336      5339
      5337      5336      5338      5337      5336      5339      5338      5336      5339
      5336      5339      5340      5336      5339      5341      5336      5339      5342
      5340      5339      5341      5340      5339      5342      5341      5339      5342
      5339      5342      5343      5339      5342      5344      5339      5342      5345
      5343      5342      5344      5343      5342      5345      5344      5342      5345
      5342      5345      5346      5342      5345      5347      5342      5345      5348
      5346      5345      5347      5346      5345      5348      5347      5345      5348
      5345      5348      5349      5345      5348      5350      5345      5348      5351
      5349      5348      5350      5349      5348      5351      5350      5348      5351
      5348      5351      5352      5348      5351      5353      5348      5351      5354
      5352      5351      5353      5352      5351      5354      5353      5351      5354
      5351      5354      5355      5351      5354      5356      5355      5354      5356
      5354      5356      5357      5354      5356      5358      5357      5356      5358
      5356      5358      5359      5356      5358      5360      5356      5358      5361
      5359      5358      5360      5359      5358      5361      5360      5358      5361
      5358      5361      5362      5358      5361      5363      5358      5361      5364
      5362      5361      5363      5362      5361      5364      5363      5361      5364
      5361      5364      5365      5361      5364      5366      5361      5364      5367
      5365      5364      5366      5365      5364      5367      5366      5364      5367
      5364      5367      5368      5364      5367      5369      5364      5367      5370
      5368      5367      5369      5368      5367      5370      5369      5367      5370
      5367      5370      5371      5367      5370      5372      5367      5370      5373
      5371      5370      5372      5371      5370      5373      5372      5370      5373
      5370      5373      5374      5370      5373      5375      5370      5373      5376
      5374      5373      5375      5374      5373      5376      5375      5373      5376
      5373      5376      5377      5373      5376      5378      5373      5376      5379
      5377      5376      5378      5377      5376      5379      5378      5376      5379
      5376      5379      5380      5376      5379      5381      5376      5379      5382
      5380      5379      5381      5380      5379      5382      5381      5379      5382
      5384      5383      5387      5384      5383      5391      5384      5383      5395
      5387      5383      5391      5387      5383      5395      5391      5383      5395
      5383      5384      5385      5383      5384      5386      5383      5384      5399
      5385      5384      5386      5385      5384      5399      5386      5384      5399
      5383      5387      5388      5383      5387      5389      5383      5387      5390
      5388      5387      5389      5388      5387      5390      5389      5387      5390
      5383      5391      5392      5383      5391      5393      5383      5391      5394
      5392      5391      5393      5392      5391      5394      5393      5391      5394
      5383      5395      5396      5383      5395      5397      5383      5395      5398
      5396      5395      5397      5396      5395      5398      5397      5395      5398
      5384      5399      5400      5384      5399      5401      5384      5399      5405
      5400      5399      5401      5400      5399      5405      5401      5399      5405
      5403      5402      5404      5403      5402      5405      5403      5402      5406
      5404      5402      5405      5404      5402      5406      5405      5402      5406
      5399      5405      5402      5402      5406      5407      5406      5407      5408
      5406      5407      5409      5406      5407      5410      5408      5407      5409
      5408      5407      5410      5409      5407      5410      5407      5410      5411
      5407      5410      5412      5407      5410      5418      5411      5410      5412
      5411      5410      5418      5412      5410      5418      5410      5412      5413
      5412      5413      5414      5412      5413      5415      5414      5413      5415
      5413      5415      5416      5413      5415      5417      5413      5415      5427
      5416      5415      5417      5416      5415      5427      5417      5415      5427
      5410      5418      5419      5410      5418      5420      5410      5418      5421
      5419      5418      5420      5419      5418      5421      5420      5418      5421
      5418      5421      5422      5421      5422      5423      5421      5422      5424
      5423      5422      5424      5422      5424      5425      5422      5424      5426
      5422      5424      5474      5425      5424      5426      5425      5424      5474
      5426      5424      5474      5415      5427      5428      5415      5427      5429
      5415      5427      5430      5428      5427      5429      5428      5427      5430
      5429      5427      5430      5427      5430      5431      5427      5430      5432
      5427      5430      5433      5431      5430      5432      5431      5430      5433
      5432      5430      5433      5430      5433      5434      5430      5433      5435
      5430      5433      5436      5434      5433      5435      5434      5433      5436
      5435      5433      5436      5433      5436      5437      5433      5436      5438
      5433      5436      5439      5437      5436      5438      5437      5436      5439
      5438      5436      5439      5436      5439      5440      5436      5439      5441
      5436      5439      5442      5440      5439      5441      5440      5439      5442
      5441      5439      5442      5439      5442      5443      5439      5442      5444
      5439      5442      5445      5443      5442      5444      5443      5442      5445
      5444      5442      5445      5442      5445      5446      5442      5445      5447
      5446      5445      5447      5445      5447      5448      5445      5447      5449
      5448      5447      5449      5447      5449      5450      5447      5449      5451
      5447      5449      5452      5450      5449      5451      5450      5449      5452
      5451      5449      5452      5449      5452      5453      5449      5452      5454
      5449      5452      5455      5453      5452      5454      5453      5452      5455
      5454      5452      5455      5452      5455      5456      5452      5455      5457
      5452      5455      5458      5456      5455      5457      5456      5455      5458
      5457      5455      5458      5455      5458      5459      5455      5458      5460
      5455      5458      5461      5459      5458      5460      5459      5458      5461
      5460      5458      5461      5458      5461      5462      5458      5461      5463
      5458      5461      5464      5462      5461      5463      5462      5461      5464
      5463      5461      5464      5461      5464      5465      5461      5464      5466
      5461      5464      5467      5465      5464      5466      5465      5464      5467
      5466      5464      5467      5464      5467      5468      5464      5467      5469
      5464      5467      5470      5468      5467      5469      5468      5467      5470
      5469      5467      5470      5467      5470      5471      5467      5470      5472
      5467      5470      5473      5471      5470      5472      5471      5470      5473
      5472      5470      5473      5424      5474      5475      5424      5474      5476
      5424      5474      5477      5475      5474      5476      5475      5474      5477
      5476      5474      5477      5474      5477      5478      5474      5477      5479
      5474      5477      5480      5478      5477      5479      5478      5477      5480
      5479      5477      5480      5477      5480      5481      5477      5480      5482
      5477      5480      5483      5481      5480      5482      5481      5480      5483
      5482      5480      5483      5480      5483      5484      5480      5483      5485
      5480      5483      5486      5484      5483      5485      5484      5483      5486
      5485      5483      5486      5483      5486      5487      5483      5486      5488
      5483      5486      5489      5487      5486      5488      5487      5486      5489
      5488      5486      5489      5486      5489      5490      5486      5489      5491
      5486      5489      5492      5490      5489      5491      5490      5489      5492
      5491      5489      5492      5489      5492      5493      5489      5492      5494
      5493      5492      5494      5492      5494      5495      5492      5494      5496
      5495      5494      5496      5494      5496      5497      5494      5496      5498
      5494      5496      5499      5497      5496      5498      5497      5496      5499
      5498      5496      5499      5496      5499      5500      5496      5499      5501
      5496      5499      5502      5500      5499      5501      5500      5499      5502
      5501      5499      5502      5499      5502      5503      5499      5502      5504
      5499      5502      5505      5503      5502      5504      5503      5502      5505
      5504      5502      5505      5502      5505      5506      5502      5505      5507
      5502      5505      5508      5506      5505      5507      5506      5505      5508
      5507      5505      5508      5505      5508      5509      5505      5508      5510
      5505      5508      5511      5509      5508      5510      5509      5508      5511
      5510      5508      5511      5508      5511      5512      5508      5511      5513
      5508      5511      5514      5512      5511      5513      5512      5511      5514
      5513      5511      5514      5511      5514      5515      5511      5514      5516
      5511      5514      5517      5515      5514      5516      5515      5514      5517
      5516      5514      5517      5514      5517      5518      5514      5517      5519
      5514      5517      5520      5518      5517      5519      5518      5517      5520
      5519      5517      5520      5522      5521      5525      5522      5521      5529
      5522      5521      5533      5525      5521      5529      5525      5521      5533
      5529      5521      5533      5521      5522      5523      5521      5522      5524
      5521      5522      5537      5523      5522      5524      5523      5522      5537
      5524      5522      5537      5521      5525      5526      5521      5525      5527
      5521      5525      5528      5526      5525      5527      5526      5525      5528
      5527      5525      5528      5521      5529      5530      5521      5529      5531
      5521      5529      5532      5530      5529      5531      5530      5529      5532
      5531      5529      5532      5521      5533      5534      5521      5533      5535
      5521      5533      5536      5534      5533      5535      5534      5533      5536
      5535      5533      5536      5522      5537      5538      5522      5537      5539
      5522      5537      5543      5538      5537      5539      5538      5537      5543
      5539      5537      5543      5541      5540      5542      5541      5540      5543
      5541      5540      5544      5542      5540      5543      5542      5540      5544
      5543      5540      5544      5537      5543      5540      5540      5544      5545
      5544      5545      5546      5544      5545      5547      5544      5545      5548
      5546      5545      5547      5546      5545      5548      5547      5545      5548
      5545      5548      5549      5545      5548      5550      5545      5548      5556
      5549      5548      5550      5549      5548      5556      5550      5548      5556
      5548      5550      5551      5550      5551      5552      5550      5551      5553
      5552      5551      5553      5551      5553      5554      5551      5553      5555
      5551      5553      5565      5554      5553      5555      5554      5553      5565
      5555      5553      5565      5548      5556      5557      5548      5556      5558
      5548      5556      5559      5557      5556      5558      5557      5556      5559
      5558      5556      5559      5556      5559      5560      5559      5560      5561
      5559      5560      5562      5561      5560      5562      5560      5562      5563
      5560      5562      5564      5560      5562      5612      5563      5562      5564
      5563      5562      5612      5564      5562      5612      5553      5565      5566
      5553      5565      5567      5553      5565      5568      5566      5565      5567
      5566      5565      5568      5567      5565      5568      5565      5568      5569
      5565      5568      5570      5565      5568      5571      5569      5568      5570
      5569      5568      5571      5570      5568      5571      5568      5571      5572
      5568      5571      5573      5568      5571      5574      5572      5571      5573
      5572      5571      5574      5573      5571      5574      5571      5574      5575
      5571      5574      5576      5571      5574      5577      5575      5574      5576
      5575      5574      5577      5576      5574      5577      5574      5577      5578
      5574      5577      5579      5574      5577      5580      5578      5577      5579
      5578      5577      5580      5579      5577      5580      5577      5580      5581
      5577      5580      5582      5577      5580      5583      5581      5580      5582
      5581      5580      5583      5582      5580      5583      5580      5583      5584
      5580      5583      5585      5584      5583      5585      5583      5585      5586
      5583      5585      5587      5586      5585      5587      5585      5587      5588
      5585      5587      5589      5585      5587      5590      5588      5587      5589
      5588      5587      5590      5589      5587      5590      5587      5590      5591
      5587      5590      5592      5587      5590      5593      5591      5590      5592
      5591      5590      5593      5592      5590      5593      5590      5593      5594
      5590      5593      5595      5590      5593      5596      5594      5593      5595
      5594      5593      5596      5595      5593      5596      5593      5596      5597
      5593      5596      5598      5593      5596      5599      5597      5596      5598
      5597      5596      5599      5598      5596      5599      5596      5599      5600
      5596      5599      5601      5596      5599      5602      5600      5599      5601
      5600      5599      5602      5601      5599      5602      5599      5602      5603
      5599      5602      5604      5599      5602      5605      5603      5602      5604
      5603      5602      5605      5604      5602      5605      5602      5605      5606
      5602      5605      5607      5602      5605      5608      5606      5605      5607
      5606      5605      5608      5607      5605      5608      5605      5608      5609
      5605      5608      5610      5605      5608      5611      5609      5608      5610
      5609      5608      5611      5610      5608      5611      5562      5612      5613
      5562      5612      5614      5562      5612      5615      5613      5612      5614
      5613      5612      5615      5614      5612      5615      5612      5615      5616
      5612      5615      5617      5612      5615      5618      5616      5615      5617
      5616      5615      5618      5617      5615      5618      5615      5618      5619
      5615      5618      5620      5615      5618      5621      5619      5618      5620
      5619      5618      5621      5620      5618      5621      5618      5621      5622
      5618      5621      5623      5618      5621      5624      5622      5621      5623
      5622      5621      5624      5623      5621      5624      5621      5624      5625
      5621      5624      5626      5621      5624      5627      5625      5624      5626
      5625      5624      5627      5626      5624      5627      5624      5627      5628
      5624      5627      5629      5624      5627      5630      5628      5627      5629
      5628      5627      5630      5629      5627      5630      5627      5630      5631
      5627      5630      5632      5631      5630      5632      5630      5632      5633
      5630      5632      5634      5633      5632      5634      5632      5634      5635
      5632      5634      5636      5632      5634      5637      5635      5634      5636
      5635      5634      5637      5636      5634      5637      5634      5637      5638
      5634      5637      5639      5634      5637      5640      5638      5637      5639
      5638      5637      5640      5639      5637      5640      5637      5640      5641
      5637      5640      5642      5637      5640      5643      5641      5640      5642
      5641      5640      5643      5642      5640      5643      5640      5643      5644
      5640      5643      5645      5640      5643      5646      5644      5643      5645
      5644      5643      5646      5645      5643      5646      5643      5646      5647
      5643      5646      5648      5643      5646      5649      5647      5646      5648
      5647      5646      5649      5648      5646      5649      5646      5649      5650
      5646      5649      5651      5646      5649      5652      5650      5649      5651
      5650      5649      5652      5651      5649      5652      5649      5652      5653
      5649      5652      5654      5649      5652      5655      5653      5652      5654
      5653      5652      5655      5654      5652      5655      5652      5655      5656
      5652      5655      5657      5652      5655      5658      5656      5655      5657
      5656      5655      5658      5657      5655      5658      5660      5659      5663
      5660      5659      5667      5660      5659      5671      5663      5659      5667
      5663      5659      5671      5667      5659      5671      5659      5660      5661
      5659      5660      5662      5659      5660      5675      5661      5660      5662
      5661      5660      5675      5662      5660      5675      5659      5663      5664
      5659      5663      5665      5659      5663      5666      5664      5663      5665
      5664      5663      5666      5665      5663      5666      5659      5667      5668
      5659      5667      5669      5659      5667      5670      5668      5667      5669
      5668      5667      5670      5669      5667      5670      5659      5671      5672
      5659      5671      5673      5659      5671      5674      5672      5671      5673
      5672      5671      5674      5673      5671      5674      5660      5675      5676
      5660      5675      5677      5660      5675      5681      5676      5675      5677
      5676      5675      5681      5677      5675      5681      5679      5678      5680
      5679      5678      5681      5679      5678      5682      5680      5678      5681
      5680      5678      5682      5681      5678      5682      5675      5681      5678
      5678      5682      5683      5682      5683      5684      5682      5683      5685
      5682      5683      5686      5684      5683      5685      5684      5683      5686
      5685      5683      5686      5683      5686      5687      5683      5686      5688
      5683      5686      5694      5687      5686      5688      5687      5686      5694
      5688      5686      5694      5686      5688      5689      5688      5689      5690
      5688      5689      5691      5690      5689      5691      5689      5691      5692
      5689      5691      5693      5689      5691      5703      5692      5691      5693
      5692      5691      5703      5693      5691      5703      5686      5694      5695
      5686      5694      5696      5686      5694      5697      5695      5694      5696
      5695      5694      5697      5696      5694      5697      5694      5697      5698
      5697      5698      5699      5697      5698      5700      5699      5698      5700
      5698      5700      5701      5698      5700      5702      5698      5700      5750
      5701      5700      5702      5701      5700      5750      5702      5700      5750
      5691      5703      5704      5691      5703      5705      5691      5703      5706
      5704      5703      5705      5704      5703      5706      5705      5703      5706
      5703      5706      5707      5703      5706      5708      5703      5706      5709
      5707      5706      5708      5707      5706      5709      5708      5706      5709
      5706      5709      5710      5706      5709      5711      5706      5709      5712
      5710      5709      5711      5710      5709      5712      5711      5709      5712
      5709      5712      5713      5709      5712      5714      5709      5712      5715
      5713      5712      5714      5713      5712      5715      5714      5712      5715
      5712      5715      5716      5712      5715      5717      5712      5715      5718
      5716      5715      5717      5716      5715      5718      5717      5715      5718
      5715      5718      5719      5715      5718      5720      5715      5718      5721
      5719      5718      5720      5719      5718      5721      5720      5718      5721
      5718      5721      5722      5718      5721      5723      5722      5721      5723
      5721      5723      5724      5721      5723      5725      5724      5723      5725
      5723      5725      5726      5723      5725      5727      5723      5725      5728
      5726      5725      5727      5726      5725      5728      5727      5725      5728
      5725      5728      5729      5725      5728      5730      5725      5728      5731
      5729      5728      5730      5729      5728      5731      5730      5728      5731
      5728      5731      5732      5728      5731      5733      5728      5731      5734
      5732      5731      5733      5732      5731      5734      5733      5731      5734
      5731      5734      5735      5731      5734      5736      5731      5734      5737
      5735      5734      5736      5735      5734      5737      5736      5734      5737
      5734      5737      5738      5734      5737      5739      5734      5737      5740
      5738      5737      5739      5738      5737      5740      5739      5737      5740
      5737      5740      5741      5737      5740      5742      5737      5740      5743
      5741      5740      5742      5741      5740      5743      5742      5740      5743
      5740      5743      5744      5740      5743      5745      5740      5743      5746
      5744      5743      5745      5744      5743      5746      5745      5743      5746
      5743      5746      5747      5743      5746      5748      5743      5746      5749
      5747      5746      5748      5747      5746      5749      5748      5746      5749
      5700      5750      5751      5700      5750      5752      5700      5750      5753
      5751      5750      5752      5751      5750      5753      5752      5750      5753
      5750      5753      5754      5750      5753      5755      5750      5753      5756
      5754      5753      5755      5754      5753      5756      5755      5753      5756
      5753      5756      5757      5753      5756      5758      5753      5756      5759
      5757      5756      5758      5757      5756      5759      5758      5756      5759
      5756      5759      5760      5756      5759      5761      5756      5759      5762
      5760      5759      5761      5760      5759      5762      5761      5759      5762
      5759      5762      5763      5759      5762      5764      5759      5762      5765
      5763      5762      5764      5763      5762      5765      5764      5762      5765
      5762      5765      5766      5762      5765      5767      5762      5765      5768
      5766      5765      5767      5766      5765      5768      5767      5765      5768
      5765      5768      5769      5765      5768      5770      5769      5768      5770
      5768      5770      5771      5768      5770      5772      5771      5770      5772
      5770      5772      5773      5770      5772      5774      5770      5772      5775
      5773      5772      5774      5773      5772      5775      5774      5772      5775
      5772      5775      5776      5772      5775      5777      5772      5775      5778
      5776      5775      5777      5776      5775      5778      5777      5775      5778
      5775      5778      5779      5775      5778      5780      5775      5778      5781
      5779      5778      5780      5779      5778      5781      5780      5778      5781
      5778      5781      5782      5778      5781      5783      5778      5781      5784
      5782      5781      5783      5782      5781      5784      5783      5781      5784
      5781      5784      5785      5781      5784      5786      5781      5784      5787
      5785      5784      5786      5785      5784      5787      5786      5784      5787
      5784      5787      5788      5784      5787      5789      5784      5787      5790
      5788      5787      5789      5788      5787      5790      5789      5787      5790
      5787      5790      5791      5787      5790      5792      5787      5790      5793
      5791      5790      5792      5791      5790      5793      5792      5790      5793
      5790      5793      5794      5790      5793      5795      5790      5793      5796
      5794      5793      5795      5794      5793      5796      5795      5793      5796
      5798      5797      5801      5798      5797      5805      5798      5797      5809
      5801      5797      5805      5801      5797      5809      5805      5797      5809
      5797      5798      5799      5797      5798      5800      5797      5798      5813
      5799      5798      5800      5799      5798      5813      5800      5798      5813
      5797      5801      5802      5797      5801      5803      5797      5801      5804
      5802      5801      5803      5802      5801      5804      5803      5801      5804
      5797      5805      5806      5797      5805      5807      5797      5805      5808
      5806      5805      5807      5806      5805      5808      5807      5805      5808
      5797      5809      5810      5797      5809      5811      5797      5809      5812
      5810      5809      5811      5810      5809      5812      5811      5809      5812
      5798      5813      5814      5798      5813      5815      5798      5813      5819
      5814      5813      5815      5814      5813      5819      5815      5813      5819
      5817      5816      5818      5817      5816      5819      5817      5816      5820
      5818      5816      5819      5818      5816      5820      5819      5816      5820
      5813      5819      5816      5816      5820      5821      5820      5821      5822
      5820      5821      5823      5820      5821      5824      5822      5821      5823
      5822      5821      5824      5823      5821      5824      5821      5824      5825
      5821      5824      5826      5821      5824      5832      5825      5824      5826
      5825      5824      5832      5826      5824      5832      5824      5826      5827
      5826      5827      5828      5826      5827      5829      5828      5827      5829
      5827      5829      5830      5827      5829      5831      5827      5829      5841
      5830      5829      5831      5830      5829      5841      5831      5829      5841
      5824      5832      5833      5824      5832      5834      5824      5832      5835
      5833      5832      5834      5833      5832      5835      5834      5832      5835
      5832      5835      5836      5835      5836      5837      5835      5836      5838
      5837      5836      5838      5836      5838      5839      5836      5838      5840
      5836      5838      5888      5839      5838      5840      5839      5838      5888
      5840      5838      5888      5829      5841      5842      5829      5841      5843
      5829      5841      5844      5842      5841      5843      5842      5841      5844
      5843      5841      5844      5841      5844      5845      5841      5844      5846
      5841      5844      5847      5845      5844      5846      5845      5844      5847
      5846      5844      5847      5844      5847      5848      5844      5847      5849
      5844      5847      5850      5848      5847      5849      5848      5847      5850
      5849      5847      5850      5847      5850      5851      5847      5850      5852
      5847      5850      5853      5851      5850      5852      5851      5850      5853
      5852      5850      5853      5850      5853      5854      5850      5853      5855
      5850      5853      5856      5854      5853      5855      5854      5853      5856
      5855      5853      5856      5853      5856      5857      5853      5856      5858
      5853      5856      5859      5857      5856      5858      5857      5856      5859
      5858      5856      5859      5856      5859      5860      5856      5859      5861
      5860      5859      5861      5859      5861      5862      5859      5861      5863
      5862      5861      5863      5861      5863      5864      5861      5863      5865
      5861      5863      5866      5864      5863      5865      5864      5863      5866
      5865      5863      5866      5863      5866      5867      5863      5866      5868
      5863      5866      5869      5867      5866      5868      5867      5866      5869
      5868      5866      5869      5866      5869      5870      5866      5869      5871
      5866      5869      5872      5870      5869      5871      5870      5869      5872
      5871      5869      5872      5869      5872      5873      5869      5872      5874
      5869      5872      5875      5873      5872      5874      5873      5872      5875
      5874      5872      5875      5872      5875      5876      5872      5875      5877
      5872      5875      5878      5876      5875      5877      5876      5875      5878
      5877      5875      5878      5875      5878      5879      5875      5878      5880
      5875      5878      5881      5879      5878      5880      5879      5878      5881
      5880      5878      5881      5878      5881      5882      5878      5881      5883
      5878      5881      5884      5882      5881      5883      5882      5881      5884
      5883      5881      5884      5881      5884      5885      5881      5884      5886
      5881      5884      5887      5885      5884      5886      5885      5884      5887
      5886      5884      5887      5838      5888      5889      5838      5888      5890
      5838      5888      5891      5889      5888      5890      5889      5888      5891
      5890      5888      5891      5888      5891      5892      5888      5891      5893
      5888      5891      5894      5892      5891      5893      5892      5891      5894
      5893      5891      5894      5891      5894      5895      5891      5894      5896
      5891      5894      5897      5895      5894      5896      5895      5894      5897
      5896      5894      5897      5894      5897      5898      5894      5897      5899
      5894      5897      5900      5898      5897      5899      5898      5897      5900
      5899      5897      5900      5897      5900      5901      5897      5900      5902
      5897      5900      5903      5901      5900      5902      5901      5900      5903
      5902      5900      5903      5900      5903      5904      5900      5903      5905
      5900      5903      5906      5904      5903      5905      5904      5903      5906
      5905      5903      5906      5903      5906      5907      5903      5906      5908
      5907      5906      5908      5906      5908      5909      5906      5908      5910
      5909      5908      5910      5908      5910      5911      5908      5910      5912
      5908      5910      5913      5911      5910      5912      5911      5910      5913
      5912      5910      5913      5910      5913      5914      5910      5913      5915
      5910      5913      5916      5914      5913      5915      5914      5913      5916
      5915      5913      5916      5913      5916      5917      5913      5916      5918
      5913      5916      5919      5917      5916      5918      5917      5916      5919
      5918      5916      5919      5916      5919      5920      5916      5919      5921
      5916      5919      5922      5920      5919      5921      5920      5919      5922
      5921      5919      5922      5919      5922      5923      5919      5922      5924
      5919      5922      5925      5923      5922      5924      5923      5922      5925
      5924      5922      5925      5922      5925      5926      5922      5925      5927
      5922      5925      5928      5926      5925      5927      5926      5925      5928
      5927      5925      5928      5925      5928      5929      5925      5928      5930
      5925      5928      5931      5929      5928      5930      5929      5928      5931
      5930      5928      5931      5928      5931      5932      5928      5931      5933
      5928      5931      5934      5932      5931      5933      5932      5931      5934
      5933      5931      5934      5936      5935      5939      5936      5935      5943
      5936      5935      5947      5939      5935      5943      5939      5935      5947
      5943      5935      5947      5935      5936      5937      5935      5936      5938
      5935      5936      5951      5937      5936      5938      5937      5936      5951
      5938      5936      5951      5935      5939      5940      5935      5939      5941
      5935      5939      5942      5940      5939      5941      5940      5939      5942
      5941      5939      5942      5935      5943      5944      5935      5943      5945
      5935      5943      5946      5944      5943      5945      5944      5943      5946
      5945      5943      5946      5935      5947      5948      5935      5947      5949
      5935      5947      5950      5948      5947      5949      5948      5947      5950
      5949      5947      5950      5936      5951      5952      5936      5951      5953
      5936      5951      5957      5952      5951      5953      5952      5951      5957
      5953      5951      5957      5955      5954      5956      5955      5954      5957
      5955      5954      5958      5956      5954      5957      5956      5954      5958
      5957      5954      5958      5951      5957      5954      5954      5958      5959
      5958      5959      5960      5958      5959      5961      5958      5959      5962
      5960      5959      5961      5960      5959      5962      5961      5959      5962
      5959      5962      5963      5959      5962      5964      5959      5962      5970
      5963      5962      5964      5963      5962      5970      5964      5962      5970
      5962      5964      5965      5964      5965      5966      5964      5965      5967
      5966      5965      5967      5965      5967      5968      5965      5967      5969
      5965      5967      5979      5968      5967      5969      5968      5967      5979
      5969      5967      5979      5962      5970      5971      5962      5970      5972
      5962      5970      5973      5971      5970      5972      5971      5970      5973
      5972      5970      5973      5970      5973      5974      5973      5974      5975
      5973      5974      5976      5975      5974      5976      5974      5976      5977
      5974      5976      5978      5974      5976      6026      5977      5976      5978
      5977      5976      6026      5978      5976      6026      5967      5979      5980
      5967      5979      5981      5967      5979      5982      5980      5979      5981
      5980      5979      5982      5981      5979      5982      5979      5982      5983
      5979      5982      5984      5979      5982      5985      5983      5982      5984
      5983      5982      5985      5984      5982      5985      5982      5985      5986
      5982      5985      5987      5982      5985      5988      5986      5985      5987
      5986      5985      5988      5987      5985      5988      5985      5988      5989
      5985      5988      5990      5985      5988      5991      5989      5988      5990
      5989      5988      5991      5990      5988      5991      5988      5991      5992
      5988      5991      5993      5988      5991      5994      5992      5991      5993
      5992      5991      5994      5993      5991      5994      5991      5994      5995
      5991      5994      5996      5991      5994      5997      5995      5994      5996
      5995      5994      5997      5996      5994      5997      5994      5997      5998
      5994      5997      5999      5998      5997      5999      5997      5999      6000
      5997      5999      6001      6000      5999      6001      5999      6001      6002
      5999      6001      6003      5999      6001      6004      6002      6001      6003
      6002      6001      6004      6003      6001      6004      6001      6004      6005
      6001      6004      6006      6001      6004      6007      6005      6004      6006
      6005      6004      6007      6006      6004      6007      6004      6007      6008
      6004      6007      6009      6004      6007      6010      6008      6007      6009
      6008      6007      6010      6009      6007      6010      6007      6010      6011
      6007      6010      6012      6007      6010      6013      6011      6010      6012
      6011      6010      6013      6012      6010      6013      6010      6013      6014
      6010      6013      6015      6010      6013      6016      6014      6013      6015
      6014      6013      6016      6015      6013      6016      6013      6016      6017
      6013      6016      6018      6013      6016      6019      6017      6016      6018
      6017      6016      6019      6018      6016      6019      6016      6019      6020
      6016      6019      6021      6016      6019      6022      6020      6019      6021
      6020      6019      6022      6021      6019      6022      6019      6022      6023
      6019      6022      6024      6019      6022      6025      6023      6022      6024
      6023      6022      6025      6024      6022      6025      5976      6026      6027
      5976      6026      6028      5976      6026      6029      6027      6026      6028
      6027      6026      6029      6028      6026      6029      6026      6029      6030
      6026      6029      6031      6026      6029      6032      6030      6029      6031
      6030      6029      6032      6031      6029      6032      6029      6032      6033
      6029      6032      6034      6029      6032      6035      6033      6032      6034
      6033      6032      6035      6034      6032      6035      6032      6035      6036
      6032      6035      6037      6032      6035      6038      6036      6035      6037
      6036      6035      6038      6037      6035      6038      6035      6038      6039
      6035      6038      6040      6035      6038      6041      6039      6038      6040
      6039      6038      6041      6040      6038      6041      6038      6041      6042
      6038      6041      6043      6038      6041      6044      6042      6041      6043
      6042      6041      6044      6043      6041      6044      6041      6044      6045
      6041      6044      6046      6045      6044      6046      6044      6046      6047
      6044      6046      6048      6047      6046      6048      6046      6048      6049
      6046      6048      6050      6046      6048      6051      6049      6048      6050
      6049      6048      6051      6050      6048      6051      6048      6051      6052
      6048      6051      6053      6048      6051      6054      6052      6051      6053
      6052      6051      6054      6053      6051      6054      6051      6054      6055
      6051      6054      6056      6051      6054      6057      6055      6054      6056
      6055      6054      6057      6056      6054      6057      6054      6057      6058
      6054      6057      6059      6054      6057      6060      6058      6057      6059
      6058      6057      6060      6059      6057      6060      6057      6060      6061
      6057      6060      6062      6057      6060      6063      6061      6060      6062
      6061      6060      6063      6062      6060      6063      6060      6063      6064
      6060      6063      6065      6060      6063      6066      6064      6063      6065
      6064      6063      6066      6065      6063      6066      6063      6066      6067
      6063      6066      6068      6063      6066      6069      6067      6066      6068
      6067      6066      6069      6068      6066      6069      6066      6069      6070
      6066      6069      6071      6066      6069      6072      6070      6069      6071
      6070      6069      6072      6071      6069      6072      6074      6073      6077
      6074      6073      6081      6074      6073      6085      6077      6073      6081
      6077      6073      6085      6081      6073      6085      6073      6074      6075
      6073      6074      6076      6073      6074      6089      6075      6074      6076
      6075      6074      6089      6076      6074      6089      6073      6077      6078
      6073      6077      6079      6073      6077      6080      6078      6077      6079
      6078      6077      6080      6079      6077      6080      6073      6081      6082
      6073      6081      6083      6073      6081      6084      6082      6081      6083
      6082      6081      6084      6083      6081      6084      6073      6085      6086
      6073      6085      6087      6073      6085      6088      6086      6085      6087
      6086      6085      6088      6087      6085      6088      6074      6089      6090
      6074      6089      6091      6074      6089      6095      6090      6089      6091
      6090      6089      6095      6091      6089      6095      6093      6092      6094
      6093      6092      6095      6093      6092      6096      6094      6092      6095
      6094      6092      6096      6095      6092      6096      6089      6095      6092
      6092      6096      6097      6096      6097      6098      6096      6097      6099
      6096      6097      6100      6098      6097      6099      6098      6097      6100
      6099      6097      6100      6097      6100      6101      6097      6100      6102
      6097      6100      6108      6101      6100      6102      6101      6100      6108
      6102      6100      6108      6100      6102      6103      6102      6103      6104
      6102      6103      6105      6104      6103      6105      6103      6105      6106
      6103      6105      6107      6103      6105      6117      6106      6105      6107
      6106      6105      6117      6107      6105      6117      6100      6108      6109
      6100      6108      6110      6100      6108      6111      6109      6108      6110
      6109      6108      6111      6110      6108      6111      6108      6111      6112
      6111      6112      6113      6111      6112      6114      6113      6112      6114
      6112      6114      6115      6112      6114      6116      6112      6114      6164
      6115      6114      6116      6115      6114      6164      6116      6114      6164
      6105      6117      6118      6105      6117      6119      6105      6117      6120
      6118      6117      6119      6118      6117      6120      6119      6117      6120
      6117      6120      6121      6117      6120      6122      6117      6120      6123
      6121      6120      6122      6121      6120      6123      6122      6120      6123
      6120      6123      6124      6120      6123      6125      6120      6123      6126
      6124      6123      6125      6124      6123      6126      6125      6123      6126
      6123      6126      6127      6123      6126      6128      6123      6126      6129
      6127      6126      6128      6127      6126      6129      6128      6126      6129
      6126      6129      6130      6126      6129      6131      6126      6129      6132
      6130      6129      6131      6130      6129      6132      6131      6129      6132
      6129      6132      6133      6129      6132      6134      6129      6132      6135
      6133      6132      6134      6133      6132      6135      6134      6132      6135
      6132      6135      6136      6132      6135      6137      6136      6135      6137
      6135      6137      6138      6135      6137      6139      6138      6137      6139
      6137      6139      6140      6137      6139      6141      6137      6139      6142
      6140      6139      6141      6140      6139      6142      6141      6139      6142
      6139      6142      6143      6139      6142      6144      6139      6142      6145
      6143      6142      6144      6143      6142      6145      6144      6142      6145
      6142      6145      6146      6142      6145      6147      6142      6145      6148
      6146      6145      6147      6146      6145      6148      6147      6145      6148
      6145      6148      6149      6145      6148      6150      6145      6148      6151
      6149      6148      6150      6149      6148      6151      6150      6148      6151
      6148      6151      6152      6148      6151      6153      6148      6151      6154
      6152      6151      6153      6152      6151      6154      6153      6151      6154
      6151      6154      6155      6151      6154      6156      6151      6154      6157
      6155      6154      6156      6155      6154      6157      6156      6154      6157
      6154      6157      6158      6154      6157      6159      6154      6157      6160
      6158      6157      6159      6158      6157      6160      6159      6157      6160
      6157      6160      6161      6157      6160      6162      6157      6160      6163
      6161      6160      6162      6161      6160      6163      6162      6160      6163
      6114      6164      6165      6114      6164      6166      6114      6164      6167
      6165      6164      6166      6165      6164      6167      6166      6164      6167
      6164      6167      6168      6164      6167      6169      6164      6167      6170
      6168      6167      6169      6168      6167      6170      6169      6167      6170
      6167      6170      6171      6167      6170      6172      6167      6170      6173
      6171      6170      6172      6171      6170      6173      6172      6170      6173
      6170      6173      6174      6170      6173      6175      6170      6173      6176
      6174      6173      6175      6174      6173      6176      6175      6173      6176
      6173      6176      6177      6173      6176      6178      6173      6176      6179
      6177      6176      6178      6177      6176      6179      6178      6176      6179
      6176      6179      6180      6176      6179      6181      6176      6179      6182
      6180      6179      6181      6180      6179      6182      6181      6179      6182
      6179      6182      6183      6179      6182      6184      6183      6182      6184
      6182      6184      6185      6182      6184      6186      6185      6184      6186
      6184      6186      6187      6184      6186      6188      6184      6186      6189
      6187      6186      6188      6187      6186      6189      6188      6186      6189
      6186      6189      6190      6186      6189      6191      6186      6189      6192
      6190      6189      6191      6190      6189      6192      6191      6189      6192
      6189      6192      6193      6189      6192      6194      6189      6192      6195
      6193      6192      6194      6193      6192      6195      6194      6192      6195
      6192      6195      6196      6192      6195      6197      6192      6195      6198
      6196      6195      6197      6196      6195      6198      6197      6195      6198
      6195      6198      6199      6195      6198      6200      6195      6198      6201
      6199      6198      6200      6199      6198      6201      6200      6198      6201
      6198      6201      6202      6198      6201      6203      6198      6201      6204
      6202      6201      6203      6202      6201      6204      6203      6201      6204
      6201      6204      6205      6201      6204      6206      6201      6204      6207
      6205      6204      6206      6205      6204      6207      6206      6204      6207
      6204      6207      6208      6204      6207      6209      6204      6207      6210
      6208      6207      6209      6208      6207      6210      6209      6207      6210
      6212      6211      6215      6212      6211      6219      6212      6211      6223
      6215      6211      6219      6215      6211      6223      6219      6211      6223
      6211      6212      6213      6211      6212      6214      6211      6212      6227
      6213      6212      6214      6213      6212      6227      6214      6212      6227
      6211      6215      6216      6211      6215      6217      6211      6215      6218
      6216      6215      6217      6216      6215      6218      6217      6215      6218
      6211      6219      6220      6211      6219      6221      6211      6219      6222
      6220      6219      6221      6220      6219      6222      6221      6219      6222
      6211      6223      6224      6211      6223      6225      6211      6223      6226
      6224      6223      6225      6224      6223      6226      6225      6223      6226
      6212      6227      6228      6212      6227      6229      6212      6227      6233
      6228      6227      6229      6228      6227      6233      6229      6227      6233
      6231      6230      6232      6231      6230      6233      6231      6230      6234
      6232      6230      6233      6232      6230      6234      6233      6230      6234
      6227      6233      6230      6230      6234      6235      6234      6235      6236
      6234      6235      6237      6234      6235      6238      6236      6235      6237
      6236      6235      6238      6237      6235      6238      6235      6238      6239
      6235      6238      6240      6235      6238      6246      6239      6238      6240
      6239      6238      6246      6240      6238      6246      6238      6240      6241
      6240      6241      6242      6240      6241      6243      6242      6241      6243
      6241      6243      6244      6241      6243      6245      6241      6243      6255
      6244      6243      6245      6244      6243      6255      6245      6243      6255
      6238      6246      6247      6238      6246      6248      6238      6246      6249
      6247      6246      6248      6247      6246      6249      6248      6246      6249
      6246      6249      6250      6249      6250      6251      6249      6250      6252
      6251      6250      6252      6250      6252      6253      6250      6252      6254
      6250      6252      6302      6253      6252      6254      6253      6252      6302
      6254      6252      6302      6243      6255      6256      6243      6255      6257
      6243      6255      6258      6256      6255      6257      6256      6255      6258
      6257      6255      6258      6255      6258      6259      6255      6258      6260
      6255      6258      6261      6259      6258      6260      6259      6258      6261
      6260      6258      6261      6258      6261      6262      6258      6261      6263
      6258      6261      6264      6262      6261      6263      6262      6261      6264
      6263      6261      6264      6261      6264      6265      6261      6264      6266
      6261      6264      6267      6265      6264      6266      6265      6264      6267
      6266      6264      6267      6264      6267      6268      6264      6267      6269
      6264      6267      6270      6268      6267      6269      6268      6267      6270
      6269      6267      6270      6267      6270      6271      6267      6270      6272
      6267      6270      6273      6271      6270      6272      6271      6270      6273
      6272      6270      6273      6270      6273      6274      6270      6273      6275
      6274      6273      6275      6273      6275      6276      6273      6275      6277
      6276      6275      6277      6275      6277      6278      6275      6277      6279
      6275      6277      6280      6278      6277      6279      6278      6277      6280
      6279      6277      6280      6277      6280      6281      6277      6280      6282
      6277      6280      6283      6281      6280      6282      6281      6280      6283
      6282      6280      6283      6280      6283      6284      6280      6283      6285
      6280      6283      6286      6284      6283      6285      6284      6283      6286
      6285      6283      6286      6283      6286      6287      6283      6286      6288
      6283      6286      6289      6287      6286      6288      6287      6286      6289
      6288      6286      6289      6286      6289      6290      6286      6289      6291
      6286      6289      6292      6290      6289      6291      6290      6289      6292
      6291      6289      6292      6289      6292      6293      6289      6292      6294
      6289      6292      6295      6293      6292      6294      6293      6292      6295
      6294      6292      6295      6292      6295      6296      6292      6295      6297
      6292      6295      6298      6296      6295      6297      6296      6295      6298
      6297      6295      6298      6295      6298      6299      6295      6298      6300
      6295      6298      6301      6299      6298      6300      6299      6298      6301
      6300      6298      6301      6252      6302      6303      6252      6302      6304
      6252      6302      6305      6303      6302      6304      6303      6302      6305
      6304      6302      6305      6302      6305      6306      6302      6305      6307
      6302      6305      6308      6306      6305      6307      6306      6305      6308
      6307      6305      6308      6305      6308      6309      6305      6308      6310
      6305      6308      6311      6309      6308      6310      6309      6308      6311
      6310      6308      6311      6308      6311      6312      6308      6311      6313
      6308      6311      6314      6312      6311      6313      6312      6311      6314
      6313      6311      6314      6311      6314      6315      6311      6314      6316
      6311      6314      6317      6315      6314      6316      6315      6314      6317
      6316      6314      6317      6314      6317      6318      6314      6317      6319
      6314      6317      6320      6318      6317      6319      6318      6317      6320
      6319      6317      6320      6317      6320      6321      6317      6320      6322
      6321      6320      6322      6320      6322      6323      6320      6322      6324
      6323      6322      6324      6322      6324      6325      6322      6324      6326
      6322      6324      6327      6325      6324      6326      6325      6324      6327
      6326      6324      6327      6324      6327      6328      6324      6327      6329
      6324      6327      6330      6328      6327      6329      6328      6327      6330
      6329      6327      6330      6327      6330      6331      6327      6330      6332
      6327      6330      6333      6331      6330      6332      6331      6330      6333
      6332      6330      6333      6330      6333      6334      6330      6333      6335
      6330      6333      6336      6334      6333      6335      6334      6333      6336
      6335      6333      6336      6333      6336      6337      6333      6336      6338
      6333      6336      6339      6337      6336      6338      6337      6336      6339
      6338      6336      6339      6336      6339      6340      6336      6339      6341
      6336      6339      6342      6340      6339      6341      6340      6339      6342
      6341      6339      6342      6339      6342      6343      6339      6342      6344
      6339      6342      6345      6343      6342      6344      6343      6342      6345
      6344      6342      6345      6342      6345      6346      6342      6345      6347
      6342      6345      6348      6346      6345      6347      6346      6345      6348
      6347      6345      6348      6350      6349      6353      6350      6349      6357
      6350      6349      6361      6353      6349      6357      6353      6349      6361
      6357      6349      6361      6349      6350      6351      6349      6350      6352
      6349      6350      6365      6351      6350      6352      6351      6350      6365
      6352      6350      6365      6349      6353      6354      6349      6353      6355
      6349      6353      6356      6354      6353      6355      6354      6353      6356
      6355      6353      6356      6349      6357      6358      6349      6357      6359
      6349      6357      6360      6358      6357      6359      6358      6357      6360
      6359      6357      6360      6349      6361      6362      6349      6361      6363
      6349      6361      6364      6362      6361      6363      6362      6361      6364
      6363      6361      6364      6350      6365      6366      6350      6365      6367
      6350      6365      6371      6366      6365      6367      6366      6365      6371
      6367      6365      6371      6369      6368      6370      6369      6368      6371
      6369      6368      6372      6370      6368      6371      6370      6368      6372
      6371      6368      6372      6365      6371      6368      6368      6372      6373
      6372      6373      6374      6372      6373      6375      6372      6373      6376
      6374      6373      6375      6374      6373      6376      6375      6373      6376
      6373      6376      6377      6373      6376      6378      6373      6376      6384
      6377      6376      6378      6377      6376      6384      6378      6376      6384
      6376      6378      6379      6378      6379      6380      6378      6379      6381
      6380      6379      6381      6379      6381      6382      6379      6381      6383
      6379      6381      6393      6382      6381      6383      6382      6381      6393
      6383      6381      6393      6376      6384      6385      6376      6384      6386
      6376      6384      6387      6385      6384      6386      6385      6384      6387
      6386      6384      6387      6384      6387      6388      6387      6388      6389
      6387      6388      6390      6389      6388      6390      6388      6390      6391
      6388      6390      6392      6388      6390      6440      6391      6390      6392
      6391      6390      6440      6392      6390      6440      6381      6393      6394
      6381      6393      6395      6381      6393      6396      6394      6393      6395
      6394      6393      6396      6395      6393      6396      6393      6396      6397
      6393      6396      6398      6393      6396      6399      6397      6396      6398
      6397      6396      6399      6398      6396      6399      6396      6399      6400
      6396      6399      6401      6396      6399      6402      6400      6399      6401
      6400      6399      6402      6401      6399      6402      6399      6402      6403
      6399      6402      6404      6399      6402      6405      6403      6402      6404
      6403      6402      6405      6404      6402      6405      6402      6405      6406
      6402      6405      6407      6402      6405      6408      6406      6405      6407
      6406      6405      6408      6407      6405      6408      6405      6408      6409
      6405      6408      6410      6405      6408      6411      6409      6408      6410
      6409      6408      6411      6410      6408      6411      6408      6411      6412
      6408      6411      6413      6412      6411      6413      6411      6413      6414
      6411      6413      6415      6414      6413      6415      6413      6415      6416
      6413      6415      6417      6413      6415      6418      6416      6415      6417
      6416      6415      6418      6417      6415      6418      6415      6418      6419
      6415      6418      6420      6415      6418      6421      6419      6418      6420
      6419      6418      6421      6420      6418      6421      6418      6421      6422
      6418      6421      6423      6418      6421      6424      6422      6421      6423
      6422      6421      6424      6423      6421      6424      6421      6424      6425
      6421      6424      6426      6421      6424      6427      6425      6424      6426
      6425      6424      6427      6426      6424      6427      6424      6427      6428
      6424      6427      6429      6424      6427      6430      6428      6427      6429
      6428      6427      6430      6429      6427      6430      6427      6430      6431
      6427      6430      6432      6427      6430      6433      6431      6430      6432
      6431      6430      6433      6432      6430      6433      6430      6433      6434
      6430      6433      6435      6430      6433      6436      6434      6433      6435
      6434      6433      6436      6435      6433      6436      6433      6436      6437
      6433      6436      6438      6433      6436      6439      6437      6436      6438
      6437      6436      6439      6438      6436      6439      6390      6440      6441
      6390      6440      6442      6390      6440      6443      6441      6440      6442
      6441      6440      6443      6442      6440      6443      6440      6443      6444
      6440      6443      6445      6440      6443      6446      6444      6443      6445
      6444      6443      6446      6445      6443      6446      6443      6446      6447
      6443      6446      6448      6443      6446      6449      6447      6446      6448
      6447      6446      6449      6448      6446      6449      6446      6449      6450
      6446      6449      6451      6446      6449      6452      6450      6449      6451
      6450      6449      6452      6451      6449      6452      6449      6452      6453
      6449      6452      6454      6449      6452      6455      6453      6452      6454
      6453      6452      6455      6454      6452      6455      6452      6455      6456
      6452      6455      6457      6452      6455      6458      6456      6455      6457
      6456      6455      6458      6457      6455      6458      6455      6458      6459
      6455      6458      6460      6459      6458      6460      6458      6460      6461
      6458      6460      6462      6461      6460      6462      6460      6462      6463
      6460      6462      6464      6460      6462      6465      6463      6462      6464
      6463      6462      6465      6464      6462      6465      6462      6465      6466
      6462      6465      6467      6462      6465      6468      6466      6465      6467
      6466      6465      6468      6467      6465      6468      6465      6468      6469
      6465      6468      6470      6465      6468      6471      6469      6468      6470
      6469      6468      6471      6470      6468      6471      6468      6471      6472
      6468      6471      6473      6468      6471      6474      6472      6471      6473
      6472      6471      6474      6473      6471      6474      6471      6474      6475
      6471      6474      6476      6471      6474      6477      6475      6474      6476
      6475      6474      6477      6476      6474      6477      6474      6477      6478
      6474      6477      6479      6474      6477      6480      6478      6477      6479
      6478      6477      6480      6479      6477      6480      6477      6480      6481
      6477      6480      6482      6477      6480      6483      6481      6480      6482
      6481      6480      6483      6482      6480      6483      6480      6483      6484
      6480      6483      6485      6480      6483      6486      6484      6483      6485
      6484      6483      6486      6485      6483      6486      6488      6487      6491
      6488      6487      6495      6488      6487      6499      6491      6487      6495
      6491      6487      6499      6495      6487      6499      6487      6488      6489
      6487      6488      6490      6487      6488      6503      6489      6488      6490
      6489      6488      6503      6490      6488      6503      6487      6491      6492
      6487      6491      6493      6487      6491      6494      6492      6491      6493
      6492      6491      6494      6493      6491      6494      6487      6495      6496
      6487      6495      6497      6487      6495      6498      6496      6495      6497
      6496      6495      6498      6497      6495      6498      6487      6499      6500
      6487      6499      6501      6487      6499      6502      6500      6499      6501
      6500      6499      6502      6501      6499      6502      6488      6503      6504
      6488      6503      6505      6488      6503      6509      6504      6503      6505
      6504      6503      6509      6505      6503      6509      6507      6506      6508
      6507      6506      6509      6507      6506      6510      6508      6506      6509
      6508      6506      6510      6509      6506      6510      6503      6509      6506
      6506      6510      6511      6510      6511      6512      6510      6511      6513
      6510      6511      6514      6512      6511      6513      6512      6511      6514
      6513      6511      6514      6511      6514      6515      6511      6514      6516
      6511      6514      6522      6515      6514      6516      6515      6514      6522
      6516      6514      6522      6514      6516      6517      6516      6517      6518
      6516      6517      6519      6518      6517      6519      6517      6519      6520
      6517      6519      6521      6517      6519      6531      6520      6519      6521
      6520      6519      6531      6521      6519      6531      6514      6522      6523
      6514      6522      6524      6514      6522      6525      6523      6522      6524
      6523      6522      6525      6524      6522      6525      6522      6525      6526
      6525      6526      6527      6525      6526      6528      6527      6526      6528
      6526      6528      6529      6526      6528      6530      6526      6528      6578
      6529      6528      6530      6529      6528      6578      6530      6528      6578
      6519      6531      6532      6519      6531      6533      6519      6531      6534
      6532      6531      6533      6532      6531      6534      6533      6531      6534
      6531      6534      6535      6531      6534      6536      6531      6534      6537
      6535      6534      6536      6535      6534      6537      6536      6534      6537
      6534      6537      6538      6534      6537      6539      6534      6537      6540
      6538      6537      6539      6538      6537      6540      6539      6537      6540
      6537      6540      6541      6537      6540      6542      6537      6540      6543
      6541      6540      6542      6541      6540      6543      6542      6540      6543
      6540      6543      6544      6540      6543      6545      6540      6543      6546
      6544      6543      6545      6544      6543      6546      6545      6543      6546
      6543      6546      6547      6543      6546      6548      6543      6546      6549
      6547      6546      6548      6547      6546      6549      6548      6546      6549
      6546      6549      6550      6546      6549      6551      6550      6549      6551
      6549      6551      6552      6549      6551      6553      6552      6551      6553
      6551      6553      6554      6551      6553      6555      6551      6553      6556
      6554      6553      6555      6554      6553      6556      6555      6553      6556
      6553      6556      6557      6553      6556      6558      6553      6556      6559
      6557      6556      6558      6557      6556      6559      6558      6556      6559
      6556      6559      6560      6556      6559      6561      6556      6559      6562
      6560      6559      6561      6560      6559      6562      6561      6559      6562
      6559      6562      6563      6559      6562      6564      6559      6562      6565
      6563      6562      6564      6563      6562      6565      6564      6562      6565
      6562      6565      6566      6562      6565      6567      6562      6565      6568
      6566      6565      6567      6566      6565      6568      6567      6565      6568
      6565      6568      6569      6565      6568      6570      6565      6568      6571
      6569      6568      6570      6569      6568      6571      6570      6568      6571
      6568      6571      6572      6568      6571      6573      6568      6571      6574
      6572      6571      6573      6572      6571      6574      6573      6571      6574
      6571      6574      6575      6571      6574      6576      6571      6574      6577
      6575      6574      6576      6575      6574      6577      6576      6574      6577
      6528      6578      6579      6528      6578      6580      6528      6578      6581
      6579      6578      6580      6579      6578      6581      6580      6578      6581
      6578      6581      6582      6578      6581      6583      6578      6581      6584
      6582      6581      6583      6582      6581      6584      6583      6581      6584
      6581      6584      6585      6581      6584      6586      6581      6584      6587
      6585      6584      6586      6585      6584      6587      6586      6584      6587
      6584      6587      6588      6584      6587      6589      6584      6587      6590
      6588      6587      6589      6588      6587      6590      6589      6587      6590
      6587      6590      6591      6587      6590      6592      6587      6590      6593
      6591      6590      6592      6591      6590      6593      6592      6590      6593
      6590      6593      6594      6590      6593      6595      6590      6593      6596
      6594      6593      6595      6594      6593      6596      6595      6593      6596
      6593      6596      6597      6593      6596      6598      6597      6596      6598
      6596      6598      6599      6596      6598      6600      6599      6598      6600
      6598      6600      6601      6598      6600      6602      6598      6600      6603
      6601      6600      6602      6601      6600      6603      6602      6600      6603
      6600      6603      6604      6600      6603      6605      6600      6603      6606
      6604      6603      6605      6604      6603      6606      6605      6603      6606
      6603      6606      6607      6603      6606      6608      6603      6606      6609
      6607      6606      6608      6607      6606      6609      6608      6606      6609
      6606      6609      6610      6606      6609      6611      6606      6609      6612
      6610      6609      6611      6610      6609      6612      6611      6609      6612
      6609      6612      6613      6609      6612      6614      6609      6612      6615
      6613      6612      6614      6613      6612      6615      6614      6612      6615
      6612      6615      6616      6612      6615      6617      6612      6615      6618
      6616      6615      6617      6616      6615      6618      6617      6615      6618
      6615      6618      6619      6615      6618      6620      6615      6618      6621
      6619      6618      6620      6619      6618      6621      6620      6618      6621
      6618      6621      6622      6618      6621      6623      6618      6621      6624
      6622      6621      6623      6622      6621      6624      6623      6621      6624
      6626      6625      6629      6626      6625      6633      6626      6625      6637
      6629      6625      6633      6629      6625      6637      6633      6625      6637
      6625      6626      6627      6625      6626      6628      6625      6626      6641
      6627      6626      6628      6627      6626      6641      6628      6626      6641
      6625      6629      6630      6625      6629      6631      6625      6629      6632
      6630      6629      6631      6630      6629      6632      6631      6629      6632
      6625      6633      6634      6625      6633      6635      6625      6633      6636
      6634      6633      6635      6634      6633      6636      6635      6633      6636
      6625      6637      6638      6625      6637      6639      6625      6637      6640
      6638      6637      6639      6638      6637      6640      6639      6637      6640
      6626      6641      6642      6626      6641      6643      6626      6641      6647
      6642      6641      6643      6642      6641      6647      6643      6641      6647
      6645      6644      6646      6645      6644      6647      6645      6644      6648
      6646      6644      6647      6646      6644      6648      6647      6644      6648
      6641      6647      6644      6644      6648      6649      6648      6649      6650
      6648      6649      6651      6648      6649      6652      6650      6649      6651
      6650      6649      6652      6651      6649      6652      6649      6652      6653
      6649      6652      6654      6649      6652      6660      6653      6652      6654
      6653      6652      6660      6654      6652      6660      6652      6654      6655
      6654      6655      6656      6654      6655      6657      6656      6655      6657
      6655      6657      6658      6655      6657      6659      6655      6657      6669
      6658      6657      6659      6658      6657      6669      6659      6657      6669
      6652      6660      6661      6652      6660      6662      6652      6660      6663
      6661      6660      6662      6661      6660      6663      6662      6660      6663
      6660      6663      6664      6663      6664      6665      6663      6664      6666
      6665      6664      6666      6664      6666      6667      6664      6666      6668
      6664      6666      6716      6667      6666      6668      6667      6666      6716
      6668      6666      6716      6657      6669      6670      6657      6669      6671
      6657      6669      6672      6670      6669      6671      6670      6669      6672
      6671      6669      6672      6669      6672      6673      6669      6672      6674
      6669      6672      6675      6673      6672      6674      6673      6672      6675
      6674      6672      6675      6672      6675      6676      6672      6675      6677
      6672      6675      6678      6676      6675      6677      6676      6675      6678
      6677      6675      6678      6675      6678      6679      6675      6678      6680
      6675      6678      6681      6679      6678      6680      6679      6678      6681
      6680      6678      6681      6678      6681      6682      6678      6681      6683
      6678      6681      6684      6682      6681      6683      6682      6681      6684
      6683      6681      6684      6681      6684      6685      6681      6684      6686
      6681      6684      6687      6685      6684      6686      6685      6684      6687
      6686      6684      6687      6684      6687      6688      6684      6687      6689
      6688      6687      6689      6687      6689      6690      6687      6689      6691
      6690      6689      6691      6689      6691      6692      6689      6691      6693
      6689      6691      6694      6692      6691      6693      6692      6691      6694
      6693      6691      6694      6691      6694      6695      6691      6694      6696
      6691      6694      6697      6695      6694      6696      6695      6694      6697
      6696      6694      6697      6694      6697      6698      6694      6697      6699
      6694      6697      6700      6698      6697      6699      6698      6697      6700
      6699      6697      6700      6697      6700      6701      6697      6700      6702
      6697      6700      6703      6701      6700      6702      6701      6700      6703
      6702      6700      6703      6700      6703      6704      6700      6703      6705
      6700      6703      6706      6704      6703      6705      6704      6703      6706
      6705      6703      6706      6703      6706      6707      6703      6706      6708
      6703      6706      6709      6707      6706      6708      6707      6706      6709
      6708      6706      6709      6706      6709      6710      6706      6709      6711
      6706      6709      6712      6710      6709      6711      6710      6709      6712
      6711      6709      6712      6709      6712      6713      6709      6712      6714
      6709      6712      6715      6713      6712      6714      6713      6712      6715
      6714      6712      6715      6666      6716      6717      6666      6716      6718
      6666      6716      6719      6717      6716      6718      6717      6716      6719
      6718      6716      6719      6716      6719      6720      6716      6719      6721
      6716      6719      6722      6720      6719      6721      6720      6719      6722
      6721      6719      6722      6719      6722      6723      6719      6722      6724
      6719      6722      6725      6723      6722      6724      6723      6722      6725
      6724      6722      6725      6722      6725      6726      6722      6725      6727
      6722      6725      6728      6726      6725      6727      6726      6725      6728
      6727      6725      6728      6725      6728      6729      6725      6728      6730
      6725      6728      6731      6729      6728      6730      6729      6728      6731
      6730      6728      6731      6728      6731      6732      6728      6731      6733
      6728      6731      6734      6732      6731      6733      6732      6731      6734
      6733      6731      6734      6731      6734      6735      6731      6734      6736
      6735      6734      6736      6734      6736      6737      6734      6736      6738
      6737      6736      6738      6736      6738      6739      6736      6738      6740
      6736      6738      6741      6739      6738      6740      6739      6738      6741
      6740      6738      6741      6738      6741      6742      6738      6741      6743
      6738      6741      6744      6742      6741      6743      6742      6741      6744
      6743      6741      6744      6741      6744      6745      6741      6744      6746
      6741      6744      6747      6745      6744      6746      6745      6744      6747
      6746      6744      6747      6744      6747      6748      6744      6747      6749
      6744      6747      6750      6748      6747      6749      6748      6747      6750
      6749      6747      6750      6747      6750      6751      6747      6750      6752
      6747      6750      6753      6751      6750      6752      6751      6750      6753
      6752      6750      6753      6750      6753      6754      6750      6753      6755
      6750      6753      6756      6754      6753      6755      6754      6753      6756
      6755      6753      6756      6753      6756      6757      6753      6756      6758
      6753      6756      6759      6757      6756      6758      6757      6756      6759
      6758      6756      6759      6756      6759      6760      6756      6759      6761
      6756      6759      6762      6760      6759      6761      6760      6759      6762
      6761      6759      6762      6764      6763      6767      6764      6763      6771
      6764      6763      6775      6767      6763      6771      6767      6763      6775
      6771      6763      6775      6763      6764      6765      6763      6764      6766
      6763      6764      6779      6765      6764      6766      6765      6764      6779
      6766      6764      6779      6763      6767      6768      6763      6767      6769
      6763      6767      6770      6768      6767      6769      6768      6767      6770
      6769      6767      6770      6763      6771      6772      6763      6771      6773
      6763      6771      6774      6772      6771      6773      6772      6771      6774
      6773      6771      6774      6763      6775      6776      6763      6775      6777
      6763      6775      6778      6776      6775      6777      6776      6775      6778
      6777      6775      6778      6764      6779      6780      6764      6779      6781
      6764      6779      6785      6780      6779      6781      6780      6779      6785
      6781      6779      6785      6783      6782      6784      6783      6782      6785
      6783      6782      6786      6784      6782      6785      6784      6782      6786
      6785      6782      6786      6779      6785      6782      6782      6786      6787
      6786      6787      6788      6786      6787      6789      6786      6787      6790
      6788      6787      6789      6788      6787      6790      6789      6787      6790
      6787      6790      6791      6787      6790      6792      6787      6790      6798
      6791      6790      6792      6791      6790      6798      6792      6790      6798
      6790      6792      6793      6792      6793      6794      6792      6793      6795
      6794      6793      6795      6793      6795      6796      6793      6795      6797
      6793      6795      6807      6796      6795      6797      6796      6795      6807
      6797      6795      6807      6790      6798      6799      6790      6798      6800
      6790      6798      6801      6799      6798      6800      6799      6798      6801
      6800      6798      6801      6798      6801      6802      6801      6802      6803
      6801      6802      6804      6803      6802      6804      6802      6804      6805
      6802      6804      6806      6802      6804      6854      6805      6804      6806
      6805      6804      6854      6806      6804      6854      6795      6807      6808
      6795      6807      6809      6795      6807      6810      6808      6807      6809
      6808      6807      6810      6809      6807      6810      6807      6810      6811
      6807      6810      6812      6807      6810      6813      6811      6810      6812
      6811      6810      6813      6812      6810      6813      6810      6813      6814
      6810      6813      6815      6810      6813      6816      6814      6813      6815
      6814      6813      6816      6815      6813      6816      6813      6816      6817
      6813      6816      6818      6813      6816      6819      6817      6816      6818
      6817      6816      6819      6818      6816      6819      6816      6819      6820
      6816      6819      6821      6816      6819      6822      6820      6819      6821
      6820      6819      6822      6821      6819      6822      6819      6822      6823
      6819      6822      6824      6819      6822      6825      6823      6822      6824
      6823      6822      6825      6824      6822      6825      6822      6825      6826
      6822      6825      6827      6826      6825      6827      6825      6827      6828
      6825      6827      6829      6828      6827      6829      6827      6829      6830
      6827      6829      6831      6827      6829      6832      6830      6829      6831
      6830      6829      6832      6831      6829      6832      6829      6832      6833
      6829      6832      6834      6829      6832      6835      6833      6832      6834
      6833      6832      6835      6834      6832      6835      6832      6835      6836
      6832      6835      6837      6832      6835      6838      6836      6835      6837
      6836      6835      6838      6837      6835      6838      6835      6838      6839
      6835      6838      6840      6835      6838      6841      6839      6838      6840
      6839      6838      6841      6840      6838      6841      6838      6841      6842
      6838      6841      6843      6838      6841      6844      6842      6841      6843
      6842      6841      6844      6843      6841      6844      6841      6844      6845
      6841      6844      6846      6841      6844      6847      6845      6844      6846
      6845      6844      6847      6846      6844      6847      6844      6847      6848
      6844      6847      6849      6844      6847      6850      6848      6847      6849
      6848      6847      6850      6849      6847      6850      6847      6850      6851
      6847      6850      6852      6847      6850      6853      6851      6850      6852
      6851      6850      6853      6852      6850      6853      6804      6854      6855
      6804      6854      6856      6804      6854      6857      6855      6854      6856
      6855      6854      6857      6856      6854      6857      6854      6857      6858
      6854      6857      6859      6854      6857      6860      6858      6857      6859
      6858      6857      6860      6859      6857      6860      6857      6860      6861
      6857      6860      6862      6857      6860      6863      6861      6860      6862
      6861      6860      6863      6862      6860      6863      6860      6863      6864
      6860      6863      6865      6860      6863      6866      6864      6863      6865
      6864      6863      6866      6865      6863      6866      6863      6866      6867
      6863      6866      6868      6863      6866      6869      6867      6866      6868
      6867      6866      6869      6868      6866      6869      6866      6869      6870
      6866      6869      6871      6866      6869      6872      6870      6869      6871
      6870      6869      6872      6871      6869      6872      6869      6872      6873
      6869      6872      6874      6873      6872      6874      6872      6874      6875
      6872      6874      6876      6875      6874      6876      6874      6876      6877
      6874      6876      6878      6874      6876      6879      6877      6876      6878
      6877      6876      6879      6878      6876      6879      6876      6879      6880
      6876      6879      6881      6876      6879      6882      6880      6879      6881
      6880      6879      6882      6881      6879      6882      6879      6882      6883
      6879      6882      6884      6879      6882      6885      6883      6882      6884
      6883      6882      6885      6884      6882      6885      6882      6885      6886
      6882      6885      6887      6882      6885      6888      6886      6885      6887
      6886      6885      6888      6887      6885      6888      6885      6888      6889
      6885      6888      6890      6885      6888      6891      6889      6888      6890
      6889      6888      6891      6890      6888      6891      6888      6891      6892
      6888      6891      6893      6888      6891      6894      6892      6891      6893
      6892      6891      6894      6893      6891      6894      6891      6894      6895
      6891      6894      6896      6891      6894      6897      6895      6894      6896
      6895      6894      6897      6896      6894      6897      6894      6897      6898
      6894      6897      6899      6894      6897      6900      6898      6897      6899
      6898      6897      6900      6899      6897      6900      6902      6901      6905
      6902      6901      6909      6902      6901      6913      6905      6901      6909
      6905      6901      6913      6909      6901      6913      6901      6902      6903
      6901      6902      6904      6901      6902      6917      6903      6902      6904
      6903      6902      6917      6904      6902      6917      6901      6905      6906
      6901      6905      6907      6901      6905      6908      6906      6905      6907
      6906      6905      6908      6907      6905      6908      6901      6909      6910
      6901      6909      6911      6901      6909      6912      6910      6909      6911
      6910      6909      6912      6911      6909      6912      6901      6913      6914
      6901      6913      6915      6901      6913      6916      6914      6913      6915
      6914      6913      6916      6915      6913      6916      6902      6917      6918
      6902      6917      6919      6902      6917      6923      6918      6917      6919
      6918      6917      6923      6919      6917      6923      6921      6920      6922
      6921      6920      6923      6921      6920      6924      6922      6920      6923
      6922      6920      6924      6923      6920      6924      6917      6923      6920
      6920      6924      6925      6924      6925      6926      6924      6925      6927
      6924      6925      6928      6926      6925      6927      6926      6925      6928
      6927      6925      6928      6925      6928      6929      6925      6928      6930
      6925      6928      6936      6929      6928      6930      6929      6928      6936
      6930      6928      6936      6928      6930      6931      6930      6931      6932
      6930      6931      6933      6932      6931      6933      6931      6933      6934
      6931      6933      6935      6931      6933      6945      6934      6933      6935
      6934      6933      6945      6935      6933      6945      6928      6936      6937
      6928      6936      6938      6928      6936      6939      6937      6936      6938
      6937      6936      6939      6938      6936      6939      6936      6939      6940
      6939      6940      6941      6939      6940      6942      6941      6940      6942
      6940      6942      6943      6940      6942      6944      6940      6942      6992
      6943      6942      6944      6943      6942      6992      6944      6942      6992
      6933      6945      6946      6933      6945      6947      6933      6945      6948
      6946      6945      6947      6946      6945      6948      6947      6945      6948
      6945      6948      6949      6945      6948      6950      6945      6948      6951
      6949      6948      6950      6949      6948      6951      6950      6948      6951
      6948      6951      6952      6948      6951      6953      6948      6951      6954
      6952      6951      6953      6952      6951      6954      6953      6951      6954
      6951      6954      6955      6951      6954      6956      6951      6954      6957
      6955      6954      6956      6955      6954      6957      6956      6954      6957
      6954      6957      6958      6954      6957      6959      6954      6957      6960
      6958      6957      6959      6958      6957      6960      6959      6957      6960
      6957      6960      6961      6957      6960      6962      6957      6960      6963
      6961      6960      6962      6961      6960      6963      6962      6960      6963
      6960      6963      6964      6960      6963      6965      6964      6963      6965
      6963      6965      6966      6963      6965      6967      6966      6965      6967
      6965      6967      6968      6965      6967      6969      6965      6967      6970
      6968      6967      6969      6968      6967      6970      6969      6967      6970
      6967      6970      6971      6967      6970      6972      6967      6970      6973
      6971      6970      6972      6971      6970      6973      6972      6970      6973
      6970      6973      6974      6970      6973      6975      6970      6973      6976
      6974      6973      6975      6974      6973      6976      6975      6973      6976
      6973      6976      6977      6973      6976      6978      6973      6976      6979
      6977      6976      6978      6977      6976      6979      6978      6976      6979
      6976      6979      6980      6976      6979      6981      6976      6979      6982
      6980      6979      6981      6980      6979      6982      6981      6979      6982
      6979      6982      6983      6979      6982      6984      6979      6982      6985
      6983      6982      6984      6983      6982      6985      6984      6982      6985
      6982      6985      6986      6982      6985      6987      6982      6985      6988
      6986      6985      6987      6986      6985      6988      6987      6985      6988
      6985      6988      6989      6985      6988      6990      6985      6988      6991
      6989      6988      6990      6989      6988      6991      6990      6988      6991
      6942      6992      6993      6942      6992      6994      6942      6992      6995
      6993      6992      6994      6993      6992      6995      6994      6992      6995
      6992      6995      6996      6992      6995      6997      6992      6995      6998
      6996      6995      6997      6996      6995      6998      6997      6995      6998
      6995      6998      6999      6995      6998      7000      6995      6998      7001
      6999      6998      7000      6999      6998      7001      7000      6998      7001
      6998      7001      7002      6998      7001      7003      6998      7001      7004
      7002      7001      7003      7002      7001      7004      7003      7001      7004
      7001      7004      7005      7001      7004      7006      7001      7004      7007
      7005      7004      7006      7005      7004      7007      7006      7004      7007
      7004      7007      7008      7004      7007      7009      7004      7007      7010
      7008      7007      7009      7008      7007      7010      7009      7007      7010
      7007      7010      7011      7007      7010      7012      7011      7010      7012
      7010      7012      7013      7010      7012      7014      7013      7012      7014
      7012      7014      7015      7012      7014      7016      7012      7014      7017
      7015      7014      7016      7015      7014      7017      7016      7014      7017
      7014      7017      7018      7014      7017      7019      7014      7017      7020
      7018      7017      7019      7018      7017      7020      7019      7017      7020
      7017      7020      7021      7017      7020      7022      7017      7020      7023
      7021      7020      7022      7021      7020      7023      7022      7020      7023
      7020      7023      7024      7020      7023      7025      7020      7023      7026
      7024      7023      7025      7024      7023      7026      7025      7023      7026
      7023      7026      7027      7023      7026      7028      7023      7026      7029
      7027      7026      7028      7027      7026      7029      7028      7026      7029
      7026      7029      7030      7026      7029      7031      7026      7029      7032
      7030      7029      7031      7030      7029      7032      7031      7029      7032
      7029      7032      7033      7029      7032      7034      7029      7032      7035
      7033      7032      7034      7033      7032      7035      7034      7032      7035
      7032      7035      7036      7032      7035      7037      7032      7035      7038
      7036      7035      7037      7036      7035      7038      7037      7035      7038
      7040      7039      7043      7040      7039      7047      7040      7039      7051
      7043      7039      7047      7043      7039      7051      7047      7039      7051
      7039      7040      7041      7039      7040      7042      7039      7040      7055
      7041      7040      7042      7041      7040      7055      7042      7040      7055
      7039      7043      7044      7039      7043      7045      7039      7043      7046
      7044      7043      7045      7044      7043      7046      7045      7043      7046
      7039      7047      7048      7039      7047      7049      7039      7047      7050
      7048      7047      7049      7048      7047      7050      7049      7047      7050
      7039      7051      7052      7039      7051      7053      7039      7051      7054
      7052      7051      7053      7052      7051      7054      7053      7051      7054
      7040      7055      7056      7040      7055      7057      7040      7055      7061
      7056      7055      7057      7056      7055      7061      7057      7055      7061
      7059      7058      7060      7059      7058      7061      7059      7058      7062
      7060      7058      7061      7060      7058      7062      7061      7058      7062
      7055      7061      7058      7058      7062      7063      7062      7063      7064
      7062      7063      7065      7062      7063      7066      7064      7063      7065
      7064      7063      7066      7065      7063      7066      7063      7066      7067
      7063      7066      7068      7063      7066      7074      7067      7066      7068
      7067      7066      7074      7068      7066      7074      7066      7068      7069
      7068      7069      7070      7068      7069      7071      7070      7069      7071
      7069      7071      7072      7069      7071      7073      7069      7071      7083
      7072      7071      7073      7072      7071      7083      7073      7071      7083
      7066      7074      7075      7066      7074      7076      7066      7074      7077
      7075      7074      7076      7075      7074      7077      7076      7074      7077
      7074      7077      7078      7077      7078      7079      7077      7078      7080
      7079      7078      7080      7078      7080      7081      7078      7080      7082
      7078      7080      7130      7081      7080      7082      7081      7080      7130
      7082      7080      7130      7071      7083      7084      7071      7083      7085
      7071      7083      7086      7084      7083      7085      7084      7083      7086
      7085      7083      7086      7083      7086      7087      7083      7086      7088
      7083      7086      7089      7087      7086      7088      7087      7086      7089
      7088      7086      7089      7086      7089      7090      7086      7089      7091
      7086      7089      7092      7090      7089      7091      7090      7089      7092
      7091      7089      7092      7089      7092      7093      7089      7092      7094
      7089      7092      7095      7093      7092      7094      7093      7092      7095
      7094      7092      7095      7092      7095      7096      7092      7095      7097
      7092      7095      7098      7096      7095      7097      7096      7095      7098
      7097      7095      7098      7095      7098      7099      7095      7098      7100
      7095      7098      7101      7099      7098      7100      7099      7098      7101
      7100      7098      7101      7098      7101      7102      7098      7101      7103
      7102      7101      7103      7101      7103      7104      7101      7103      7105
      7104      7103      7105      7103      7105      7106      7103      7105      7107
      7103      7105      7108      7106      7105      7107      7106      7105      7108
      7107      7105      7108      7105      7108      7109      7105      7108      7110
      7105      7108      7111      7109      7108      7110      7109      7108      7111
      7110      7108      7111      7108      7111      7112      7108      7111      7113
      7108      7111      7114      7112      7111      7113      7112      7111      7114
      7113      7111      7114      7111      7114      7115      7111      7114      7116
      7111      7114      7117      7115      7114      7116      7115      7114      7117
      7116      7114      7117      7114      7117      7118      7114      7117      7119
      7114      7117      7120      7118      7117      7119      7118      7117      7120
      7119      7117      7120      7117      7120      7121      7117      7120      7122
      7117      7120      7123      7121      7120      7122      7121      7120      7123
      7122      7120      7123      7120      7123      7124      7120      7123      7125
      7120      7123      7126      7124      7123      7125      7124      7123      7126
      7125      7123      7126      7123      7126      7127      7123      7126      7128
      7123      7126      7129      7127      7126      7128      7127      7126      7129
      7128      7126      7129      7080      7130      7131      7080      7130      7132
      7080      7130      7133      7131      7130      7132      7131      7130      7133
      7132      7130      7133      7130      7133      7134      7130      7133      7135
      7130      7133      7136      7134      7133      7135      7134      7133      7136
      7135      7133      7136      7133      7136      7137      7133      7136      7138
      7133      7136      7139      7137      7136      7138      7137      7136      7139
      7138      7136      7139      7136      7139      7140      7136      7139      7141
      7136      7139      7142      7140      7139      7141      7140      7139      7142
      7141      7139      7142      7139      7142      7143      7139      7142      7144
      7139      7142      7145      7143      7142      7144      7143      7142      7145
      7144      7142      7145      7142      7145      7146      7142      7145      7147
      7142      7145      7148      7146      7145      7147      7146      7145      7148
      7147      7145      7148      7145      7148      7149      7145      7148      7150
      7149      7148      7150      7148      7150      7151      7148      7150      7152
      7151      7150      7152      7150      7152      7153      7150      7152      7154
      7150      7152      7155      7153      7152      7154      7153      7152      7155
      7154      7152      7155      7152      7155      7156      7152      7155      7157
      7152      7155      7158      7156      7155      7157      7156      7155      7158
      7157      7155      7158      7155      7158      7159      7155      7158      7160
      7155      7158      7161      7159      7158      7160      7159      7158      7161
      7160      7158      7161      7158      7161      7162      7158      7161      7163
      7158      7161      7164      7162      7161      7163      7162      7161      7164
      7163      7161      7164      7161      7164      7165      7161      7164      7166
      7161      7164      7167      7165      7164      7166      7165      7164      7167
      7166      7164      7167      7164      7167      7168      7164      7167      7169
      7164      7167      7170      7168      7167      7169      7168      7167      7170
      7169      7167      7170      7167      7170      7171      7167      7170      7172
      7167      7170      7173      7171      7170      7172      7171      7170      7173
      7172      7170      7173      7170      7173      7174      7170      7173      7175
      7170      7173      7176      7174      7173      7175      7174      7173      7176
      7175      7173      7176      7178      7177      7181      7178      7177      7185
      7178      7177      7189      7181      7177      7185      7181      7177      7189
      7185      7177      7189      7177      7178      7179      7177      7178      7180
      7177      7178      7193      7179      7178      7180      7179      7178      7193
      7180      7178      7193      7177      7181      7182      7177      7181      7183
      7177      7181      7184      7182      7181      7183      7182      7181      7184
      7183      7181      7184      7177      7185      7186      7177      7185      7187
      7177      7185      7188      7186      7185      7187      7186      7185      7188
      7187      7185      7188      7177      7189      7190      7177      7189      7191
      7177      7189      7192      7190      7189      7191      7190      7189      7192
      7191      7189      7192      7178      7193      7194      7178      7193      7195
      7178      7193      7199      7194      7193      7195      7194      7193      7199
      7195      7193      7199      7197      7196      7198      7197      7196      7199
      7197      7196      7200      7198      7196      7199      7198      7196      7200
      7199      7196      7200      7193      7199      7196      7196      7200      7201
      7200      7201      7202      7200      7201      7203      7200      7201      7204
      7202      7201      7203      7202      7201      7204      7203      7201      7204
      7201      7204      7205      7201      7204      7206      7201      7204      7212
      7205      7204      7206      7205      7204      7212      7206      7204      7212
      7204      7206      7207      7206      7207      7208      7206      7207      7209
      7208      7207      7209      7207      7209      7210      7207      7209      7211
      7207      7209      7221      7210      7209      7211      7210      7209      7221
      7211      7209      7221      7204      7212      7213      7204      7212      7214
      7204      7212      7215      7213      7212      7214      7213      7212      7215
      7214      7212      7215      7212      7215      7216      7215      7216      7217
      7215      7216      7218      7217      7216      7218      7216      7218      7219
      7216      7218      7220      7216      7218      7268      7219      7218      7220
      7219      7218      7268      7220      7218      7268      7209      7221      7222
      7209      7221      7223      7209      7221      7224      7222      7221      7223
      7222      7221      7224      7223      7221      7224      7221      7224      7225
      7221      7224      7226      7221      7224      7227      7225      7224      7226
      7225      7224      7227      7226      7224      7227      7224      7227      7228
      7224      7227      7229      7224      7227      7230      7228      7227      7229
      7228      7227      7230      7229      7227      7230      7227      7230      7231
      7227      7230      7232      7227      7230      7233      7231      7230      7232
      7231      7230      7233      7232      7230      7233      7230      7233      7234
      7230      7233      7235      7230      7233      7236      7234      7233      7235
      7234      7233      7236      7235      7233      7236      7233      7236      7237
      7233      7236      7238      7233      7236      7239      7237      7236      7238
      7237      7236      7239      7238      7236      7239      7236      7239      7240
      7236      7239      7241      7240      7239      7241      7239      7241      7242
      7239      7241      7243      7242      7241      7243      7241      7243      7244
      7241      7243      7245      7241      7243      7246      7244      7243      7245
      7244      7243      7246      7245      7243      7246      7243      7246      7247
      7243      7246      7248      7243      7246      7249      7247      7246      7248
      7247      7246      7249      7248      7246      7249      7246      7249      7250
      7246      7249      7251      7246      7249      7252      7250      7249      7251
      7250      7249      7252      7251      7249      7252      7249      7252      7253
      7249      7252      7254      7249      7252      7255      7253      7252      7254
      7253      7252      7255      7254      7252      7255      7252      7255      7256
      7252      7255      7257      7252      7255      7258      7256      7255      7257
      7256      7255      7258      7257      7255      7258      7255      7258      7259
      7255      7258      7260      7255      7258      7261      7259      7258      7260
      7259      7258      7261      7260      7258      7261      7258      7261      7262
      7258      7261      7263      7258      7261      7264      7262      7261      7263
      7262      7261      7264      7263      7261      7264      7261      7264      7265
      7261      7264      7266      7261      7264      7267      7265      7264      7266
      7265      7264      7267      7266      7264      7267      7218      7268      7269
      7218      7268      7270      7218      7268      7271      7269      7268      7270
      7269      7268      7271      7270      7268      7271      7268      7271      7272
      7268      7271      7273      7268      7271      7274      7272      7271      7273
      7272      7271      7274      7273      7271      7274      7271      7274      7275
      7271      7274      7276      7271      7274      7277      7275      7274      7276
      7275      7274      7277      7276      7274      7277      7274      7277      7278
      7274      7277      7279      7274      7277      7280      7278      7277      7279
      7278      7277      7280      7279      7277      7280      7277      7280      7281
      7277      7280      7282      7277      7280      7283      7281      7280      7282
      7281      7280      7283      7282      7280      7283      7280      7283      7284
      7280      7283      7285      7280      7283      7286      7284      7283      7285
      7284      7283      7286      7285      7283      7286      7283      7286      7287
      7283      7286      7288      7287      7286      7288      7286      7288      7289
      7286      7288      7290      7289      7288      7290      7288      7290      7291
      7288      7290      7292      7288      7290      7293      7291      7290      7292
      7291      7290      7293      7292      7290      7293      7290      7293      7294
      7290      7293      7295      7290      7293      7296      7294      7293      7295
      7294      7293      7296      7295      7293      7296      7293      7296      7297
      7293      7296      7298      7293      7296      7299      7297      7296      7298
      7297      7296      7299      7298      7296      7299      7296      7299      7300
      7296      7299      7301      7296      7299      7302      7300      7299      7301
      7300      7299      7302      7301      7299      7302      7299      7302      7303
      7299      7302      7304      7299      7302      7305      7303      7302      7304
      7303      7302      7305      7304      7302      7305      7302      7305      7306
      7302      7305      7307      7302      7305      7308      7306      7305      7307
      7306      7305      7308      7307      7305      7308      7305      7308      7309
      7305      7308      7310      7305      7308      7311      7309      7308      7310
      7309      7308      7311      7310      7308      7311      7308      7311      7312
      7308      7311      7313      7308      7311      7314      7312      7311      7313
      7312      7311      7314      7313      7311      7314      7316      7315      7319
      7316      7315      7323      7316      7315      7327      7319      7315      7323
      7319      7315      7327      7323      7315      7327      7315      7316      7317
      7315      7316      7318      7315      7316      7331      7317      7316      7318
      7317      7316      7331      7318      7316      7331      7315      7319      7320
      7315      7319      7321      7315      7319      7322      7320      7319      7321
      7320      7319      7322      7321      7319      7322      7315      7323      7324
      7315      7323      7325      7315      7323      7326      7324      7323      7325
      7324      7323      7326      7325      7323      7326      7315      7327      7328
      7315      7327      7329      7315      7327      7330      7328      7327      7329
      7328      7327      7330      7329      7327      7330      7316      7331      7332
      7316      7331      7333      7316      7331      7337      7332      7331      7333
      7332      7331      7337      7333      7331      7337      7335      7334      7336
      7335      7334      7337      7335      7334      7338      7336      7334      7337
      7336      7334      7338      7337      7334      7338      7331      7337      7334
      7334      7338      7339      7338      7339      7340      7338      7339      7341
      7338      7339      7342      7340      7339      7341      7340      7339      7342
      7341      7339      7342      7339      7342      7343      7339      7342      7344
      7339      7342      7350      7343      7342      7344      7343      7342      7350
      7344      7342      7350      7342      7344      7345      7344      7345      7346
      7344      7345      7347      7346      7345      7347      7345      7347      7348
      7345      7347      7349      7345      7347      7359      7348      7347      7349
      7348      7347      7359      7349      7347      7359      7342      7350      7351
      7342      7350      7352      7342      7350      7353      7351      7350      7352
      7351      7350      7353      7352      7350      7353      7350      7353      7354
      7353      7354      7355      7353      7354      7356      7355      7354      7356
      7354      7356      7357      7354      7356      7358      7354      7356      7406
      7357      7356      7358      7357      7356      7406      7358      7356      7406
      7347      7359      7360      7347      7359      7361      7347      7359      7362
      7360      7359      7361      7360      7359      7362      7361      7359      7362
      7359      7362      7363      7359      7362      7364      7359      7362      7365
      7363      7362      7364      7363      7362      7365      7364      7362      7365
      7362      7365      7366      7362      7365      7367      7362      7365      7368
      7366      7365      7367      7366      7365      7368      7367      7365      7368
      7365      7368      7369      7365      7368      7370      7365      7368      7371
      7369      7368      7370      7369      7368      7371      7370      7368      7371
      7368      7371      7372      7368      7371      7373      7368      7371      7374
      7372      7371      7373      7372      7371      7374      7373      7371      7374
      7371      7374      7375      7371      7374      7376      7371      7374      7377
      7375      7374      7376      7375      7374      7377      7376      7374      7377
      7374      7377      7378      7374      7377      7379      7378      7377      7379
      7377      7379      7380      7377      7379      7381      7380      7379      7381
      7379      7381      7382      7379      7381      7383      7379      7381      7384
      7382      7381      7383      7382      7381      7384      7383      7381      7384
      7381      7384      7385      7381      7384      7386      7381      7384      7387
      7385      7384      7386      7385      7384      7387      7386      7384      7387
      7384      7387      7388      7384      7387      7389      7384      7387      7390
      7388      7387      7389      7388      7387      7390      7389      7387      7390
      7387      7390      7391      7387      7390      7392      7387      7390      7393
      7391      7390      7392      7391      7390      7393      7392      7390      7393
      7390      7393      7394      7390      7393      7395      7390      7393      7396
      7394      7393      7395      7394      7393      7396      7395      7393      7396
      7393      7396      7397      7393      7396      7398      7393      7396      7399
      7397      7396      7398      7397      7396      7399      7398      7396      7399
      7396      7399      7400      7396      7399      7401      7396      7399      7402
      7400      7399      7401      7400      7399      7402      7401      7399      7402
      7399      7402      7403      7399      7402      7404      7399      7402      7405
      7403      7402      7404      7403      7402      7405      7404      7402      7405
      7356      7406      7407      7356      7406      7408      7356      7406      7409
      7407      7406      7408      7407      7406      7409      7408      7406      7409
      7406      7409      7410      7406      7409      7411      7406      7409      7412
      7410      7409      7411      7410      7409      7412      7411      7409      7412
      7409      7412      7413      7409      7412      7414      7409      7412      7415
      7413      7412      7414      7413      7412      7415      7414      7412      7415
      7412      7415      7416      7412      7415      7417      7412      7415      7418
      7416      7415      7417      7416      7415      7418      7417      7415      7418
      7415      7418      7419      7415      7418      7420      7415      7418      7421
      7419      7418      7420      7419      7418      7421      7420      7418      7421
      7418      7421      7422      7418      7421      7423      7418      7421      7424
      7422      7421      7423      7422      7421      7424      7423      7421      7424
      7421      7424      7425      7421      7424      7426      7425      7424      7426
      7424      7426      7427      7424      7426      7428      7427      7426      7428
      7426      7428      7429      7426      7428      7430      7426      7428      7431
      7429      7428      7430      7429      7428      7431      7430      7428      7431
      7428      7431      7432      7428      7431      7433      7428      7431      7434
      7432      7431      7433      7432      7431      7434      7433      7431      7434
      7431      7434      7435      7431      7434      7436      7431      7434      7437
      7435      7434      7436      7435      7434      7437      7436      7434      7437
      7434      7437      7438      7434      7437      7439      7434      7437      7440
      7438      7437      7439      7438      7437      7440      7439      7437      7440
      7437      7440      7441      7437      7440      7442      7437      7440      7443
      7441      7440      7442      7441      7440      7443      7442      7440      7443
      7440      7443      7444      7440      7443      7445      7440      7443      7446
      7444      7443      7445      7444      7443      7446      7445      7443      7446
      7443      7446      7447      7443      7446      7448      7443      7446      7449
      7447      7446      7448      7447      7446      7449      7448      7446      7449
      7446      7449      7450      7446      7449      7451      7446      7449      7452
      7450      7449      7451      7450      7449      7452      7451      7449      7452
      7454      7453      7457      7454      7453      7461      7454      7453      7465
      7457      7453      7461      7457      7453      7465      7461      7453      7465
      7453      7454      7455      7453      7454      7456      7453      7454      7469
      7455      7454      7456      7455      7454      7469      7456      7454      7469
      7453      7457      7458      7453      7457      7459      7453      7457      7460
      7458      7457      7459      7458      7457      7460      7459      7457      7460
      7453      7461      7462      7453      7461      7463      7453      7461      7464
      7462      7461      7463      7462      7461      7464      7463      7461      7464
      7453      7465      7466      7453      7465      7467      7453      7465      7468
      7466      7465      7467      7466      7465      7468      7467      7465      7468
      7454      7469      7470      7454      7469      7471      7454      7469      7475
      7470      7469      7471      7470      7469      7475      7471      7469      7475
      7473      7472      7474      7473      7472      7475      7473      7472      7476
      7474      7472      7475      7474      7472      7476      7475      7472      7476
      7469      7475      7472      7472      7476      7477      7476      7477      7478
      7476      7477      7479      7476      7477      7480      7478      7477      7479
      7478      7477      7480      7479      7477      7480      7477      7480      7481
      7477      7480      7482      7477      7480      7488      7481      7480      7482
      7481      7480      7488      7482      7480      7488      7480      7482      7483
      7482      7483      7484      7482      7483      7485      7484      7483      7485
      7483      7485      7486      7483      7485      7487      7483      7485      7497
      7486      7485      7487      7486      7485      7497      7487      7485      7497
      7480      7488      7489      7480      7488      7490      7480      7488      7491
      7489      7488      7490      7489      7488      7491      7490      7488      7491
      7488      7491      7492      7491      7492      7493      7491      7492      7494
      7493      7492      7494      7492      7494      7495      7492      7494      7496
      7492      7494      7544      7495      7494      7496      7495      7494      7544
      7496      7494      7544      7485      7497      7498      7485      7497      7499
      7485      7497      7500      7498      7497      7499      7498      7497      7500
      7499      7497      7500      7497      7500      7501      7497      7500      7502
      7497      7500      7503      7501      7500      7502      7501      7500      7503
      7502      7500      7503      7500      7503      7504      7500      7503      7505
      7500      7503      7506      7504      7503      7505      7504      7503      7506
      7505      7503      7506      7503      7506      7507      7503      7506      7508
      7503      7506      7509      7507      7506      7508      7507      7506      7509
      7508      7506      7509      7506      7509      7510      7506      7509      7511
      7506      7509      7512      7510      7509      7511      7510      7509      7512
      7511      7509      7512      7509      7512      7513      7509      7512      7514
      7509      7512      7515      7513      7512      7514      7513      7512      7515
      7514      7512      7515      7512      7515      7516      7512      7515      7517
      7516      7515      7517      7515      7517      7518      7515      7517      7519
      7518      7517      7519      7517      7519      7520      7517      7519      7521
      7517      7519      7522      7520      7519      7521      7520      7519      7522
      7521      7519      7522      7519      7522      7523      7519      7522      7524
      7519      7522      7525      7523      7522      7524      7523      7522      7525
      7524      7522      7525      7522      7525      7526      7522      7525      7527
      7522      7525      7528      7526      7525      7527      7526      7525      7528
      7527      7525      7528      7525      7528      7529      7525      7528      7530
      7525      7528      7531      7529      7528      7530      7529      7528      7531
      7530      7528      7531      7528      7531      7532      7528      7531      7533
      7528      7531      7534      7532      7531      7533      7532      7531      7534
      7533      7531      7534      7531      7534      7535      7531      7534      7536
      7531      7534      7537      7535      7534      7536      7535      7534      7537
      7536      7534      7537      7534      7537      7538      7534      7537      7539
      7534      7537      7540      7538      7537      7539      7538      7537      7540
      7539      7537      7540      7537      7540      7541      7537      7540      7542
      7537      7540      7543      7541      7540      7542      7541      7540      7543
      7542      7540      7543      7494      7544      7545      7494      7544      7546
      7494      7544      7547      7545      7544      7546      7545      7544      7547
      7546      7544      7547      7544      7547      7548      7544      7547      7549
      7544      7547      7550      7548      7547      7549      7548      7547      7550
      7549      7547      7550      7547      7550      7551      7547      7550      7552
      7547      7550      7553      7551      7550      7552      7551      7550      7553
      7552      7550      7553      7550      7553      7554      7550      7553      7555
      7550      7553      7556      7554      7553      7555      7554      7553      7556
      7555      7553      7556      7553      7556      7557      7553      7556      7558
      7553      7556      7559      7557      7556      7558      7557      7556      7559
      7558      7556      7559      7556      7559      7560      7556      7559      7561
      7556      7559      7562      7560      7559      7561      7560      7559      7562
      7561      7559      7562      7559      7562      7563      7559      7562      7564
      7563      7562      7564      7562      7564      7565      7562      7564      7566
      7565      7564      7566      7564      7566      7567      7564      7566      7568
      7564      7566      7569      7567      7566      7568      7567      7566      7569
      7568      7566      7569      7566      7569      7570      7566      7569      7571
      7566      7569      7572      7570      7569      7571      7570      7569      7572
      7571      7569      7572      7569      7572      7573      7569      7572      7574
      7569      7572      7575      7573      7572      7574      7573      7572      7575
      7574      7572      7575      7572      7575      7576      7572      7575      7577
      7572      7575      7578      7576      7575      7577      7576      7575      7578
      7577      7575      7578      7575      7578      7579      7575      7578      7580
      7575      7578      7581      7579      7578      7580      7579      7578      7581
      7580      7578      7581      7578      7581      7582      7578      7581      7583
      7578      7581      7584      7582      7581      7583      7582      7581      7584
      7583      7581      7584      7581      7584      7585      7581      7584      7586
      7581      7584      7587      7585      7584      7586      7585      7584      7587
      7586      7584      7587      7584      7587      7588      7584      7587      7589
      7584      7587      7590      7588      7587      7589      7588      7587      7590
      7589      7587      7590      7592      7591      7595      7592      7591      7599
      7592      7591      7603      7595      7591      7599      7595      7591      7603
      7599      7591      7603      7591      7592      7593      7591      7592      7594
      7591      7592      7607      7593      7592      7594      7593      7592      7607
      7594      7592      7607      7591      7595      7596      7591      7595      7597
      7591      7595      7598      7596      7595      7597      7596      7595      7598
      7597      7595      7598      7591      7599      7600      7591      7599      7601
      7591      7599      7602      7600      7599      7601      7600      7599      7602
      7601      7599      7602      7591      7603      7604      7591      7603      7605
      7591      7603      7606      7604      7603      7605      7604      7603      7606
      7605      7603      7606      7592      7607      7608      7592      7607      7609
      7592      7607      7613      7608      7607      7609      7608      7607      7613
      7609      7607      7613      7611      7610      7612      7611      7610      7613
      7611      7610      7614      7612      7610      7613      7612      7610      7614
      7613      7610      7614      7607      7613      7610      7610      7614      7615
      7614      7615      7616      7614      7615      7617      7614      7615      7618
      7616      7615      7617      7616      7615      7618      7617      7615      7618
      7615      7618      7619      7615      7618      7620      7615      7618      7626
      7619      7618      7620      7619      7618      7626      7620      7618      7626
      7618      7620      7621      7620      7621      7622      7620      7621      7623
      7622      7621      7623      7621      7623      7624      7621      7623      7625
      7621      7623      7635      7624      7623      7625      7624      7623      7635
      7625      7623      7635      7618      7626      7627      7618      7626      7628
      7618      7626      7629      7627      7626      7628      7627      7626      7629
      7628      7626      7629      7626      7629      7630      7629      7630      7631
      7629      7630      7632      7631      7630      7632      7630      7632      7633
      7630      7632      7634      7630      7632      7682      7633      7632      7634
      7633      7632      7682      7634      7632      7682      7623      7635      7636
      7623      7635      7637      7623      7635      7638      7636      7635      7637
      7636      7635      7638      7637      7635      7638      7635      7638      7639
      7635      7638      7640      7635      7638      7641      7639      7638      7640
      7639      7638      7641      7640      7638      7641      7638      7641      7642
      7638      7641      7643      7638      7641      7644      7642      7641      7643
      7642      7641      7644      7643      7641      7644      7641      7644      7645
      7641      7644      7646      7641      7644      7647      7645      7644      7646
      7645      7644      7647      7646      7644      7647      7644      7647      7648
      7644      7647      7649      7644      7647      7650      7648      7647      7649
      7648      7647      7650      7649      7647      7650      7647      7650      7651
      7647      7650      7652      7647      7650      7653      7651      7650      7652
      7651      7650      7653      7652      7650      7653      7650      7653      7654
      7650      7653      7655      7654      7653      7655      7653      7655      7656
      7653      7655      7657      7656      7655      7657      7655      7657      7658
      7655      7657      7659      7655      7657      7660      7658      7657      7659
      7658      7657      7660      7659      7657      7660      7657      7660      7661
      7657      7660      7662      7657      7660      7663      7661      7660      7662
      7661      7660      7663      7662      7660      7663      7660      7663      7664
      7660      7663      7665      7660      7663      7666      7664      7663      7665
      7664      7663      7666      7665      7663      7666      7663      7666      7667
      7663      7666      7668      7663      7666      7669      7667      7666      7668
      7667      7666      7669      7668      7666      7669      7666      7669      7670
      7666      7669      7671      7666      7669      7672      7670      7669      7671
      7670      7669      7672      7671      7669      7672      7669      7672      7673
      7669      7672      7674      7669      7672      7675      7673      7672      7674
      7673      7672      7675      7674      7672      7675      7672      7675      7676
      7672      7675      7677      7672      7675      7678      7676      7675      7677
      7676      7675      7678      7677      7675      7678      7675      7678      7679
      7675      7678      7680      7675      7678      7681      7679      7678      7680
      7679      7678      7681      7680      7678      7681      7632      7682      7683
      7632      7682      7684      7632      7682      7685      7683      7682      7684
      7683      7682      7685      7684      7682      7685      7682      7685      7686
      7682      7685      7687      7682      7685      7688      7686      7685      7687
      7686      7685      7688      7687      7685      7688      7685      7688      7689
      7685      7688      7690      7685      7688      7691      7689      7688      7690
      7689      7688      7691      7690      7688      7691      7688      7691      7692
      7688      7691      7693      7688      7691      7694      7692      7691      7693
      7692      7691      7694      7693      7691      7694      7691      7694      7695
      7691      7694      7696      7691      7694      7697      7695      7694      7696
      7695      7694      7697      7696      7694      7697      7694      7697      7698
      7694      7697      7699      7694      7697      7700      7698      7697      7699
      7698      7697      7700      7699      7697      7700      7697      7700      7701
      7697      7700      7702      7701      7700      7702      7700      7702      7703
      7700      7702      7704      7703      7702      7704      7702      7704      7705
      7702      7704      7706      7702      7704      7707      7705      7704      7706
      7705      7704      7707      7706      7704      7707      7704      7707      7708
      7704      7707      7709      7704      7707      7710      7708      7707      7709
      7708      7707      7710      7709      7707      7710      7707      7710      7711
      7707      7710      7712      7707      7710      7713      7711      7710      7712
      7711      7710      7713      7712      7710      7713      7710      7713      7714
      7710      7713      7715      7710      7713      7716      7714      7713      7715
      7714      7713      7716      7715      7713      7716      7713      7716      7717
      7713      7716      7718      7713      7716      7719      7717      7716      7718
      7717      7716      7719      7718      7716      7719      7716      7719      7720
      7716      7719      7721      7716      7719      7722      7720      7719      7721
      7720      7719      7722      7721      7719      7722      7719      7722      7723
      7719      7722      7724      7719      7722      7725      7723      7722      7724
      7723      7722      7725      7724      7722      7725      7722      7725      7726
      7722      7725      7727      7722      7725      7728      7726      7725      7727
      7726      7725      7728      7727      7725      7728      7730      7729      7733
      7730      7729      7737      7730      7729      7741      7733      7729      7737
      7733      7729      7741      7737      7729      7741      7729      7730      7731
      7729      7730      7732      7729      7730      7745      7731      7730      7732
      7731      7730      7745      7732      7730      7745      7729      7733      7734
      7729      7733      7735      7729      7733      7736      7734      7733      7735
      7734      7733      7736      7735      7733      7736      7729      7737      7738
      7729      7737      7739      7729      7737      7740      7738      7737      7739
      7738      7737      7740      7739      7737      7740      7729      7741      7742
      7729      7741      7743      7729      7741      7744      7742      7741      7743
      7742      7741      7744      7743      7741      7744      7730      7745      7746
      7730      7745      7747      7730      7745      7751      7746      7745      7747
      7746      7745      7751      7747      7745      7751      7749      7748      7750
      7749      7748      7751      7749      7748      7752      7750      7748      7751
      7750      7748      7752      7751      7748      7752      7745      7751      7748
      7748      7752      7753      7752      7753      7754      7752      7753      7755
      7752      7753      7756      7754      7753      7755      7754      7753      7756
      7755      7753      7756      7753      7756      7757      7753      7756      7758
      7753      7756      7764      7757      7756      7758      7757      7756      7764
      7758      7756      7764      7756      7758      7759      7758      7759      7760
      7758      7759      7761      7760      7759      7761      7759      7761      7762
      7759      7761      7763      7759      7761      7773      7762      7761      7763
      7762      7761      7773      7763      7761      7773      7756      7764      7765
      7756      7764      7766      7756      7764      7767      7765      7764      7766
      7765      7764      7767      7766      7764      7767      7764      7767      7768
      7767      7768      7769      7767      7768      7770      7769      7768      7770
      7768      7770      7771      7768      7770      7772      7768      7770      7820
      7771      7770      7772      7771      7770      7820      7772      7770      7820
      7761      7773      7774      7761      7773      7775      7761      7773      7776
      7774      7773      7775      7774      7773      7776      7775      7773      7776
      7773      7776      7777      7773      7776      7778      7773      7776      7779
      7777      7776      7778      7777      7776      7779      7778      7776      7779
      7776      7779      7780      7776      7779      7781      7776      7779      7782
      7780      7779      7781      7780      7779      7782      7781      7779      7782
      7779      7782      7783      7779      7782      7784      7779      7782      7785
      7783      7782      7784      7783      7782      7785      7784      7782      7785
      7782      7785      7786      7782      7785      7787      7782      7785      7788
      7786      7785      7787      7786      7785      7788      7787      7785      7788
      7785      7788      7789      7785      7788      7790      7785      7788      7791
      7789      7788      7790      7789      7788      7791      7790      7788      7791
      7788      7791      7792      7788      7791      7793      7792      7791      7793
      7791      7793      7794      7791      7793      7795      7794      7793      7795
      7793      7795      7796      7793      7795      7797      7793      7795      7798
      7796      7795      7797      7796      7795      7798      7797      7795      7798
      7795      7798      7799      7795      7798      7800      7795      7798      7801
      7799      7798      7800      7799      7798      7801      7800      7798      7801
      7798      7801      7802      7798      7801      7803      7798      7801      7804
      7802      7801      7803      7802      7801      7804      7803      7801      7804
      7801      7804      7805      7801      7804      7806      7801      7804      7807
      7805      7804      7806      7805      7804      7807      7806      7804      7807
      7804      7807      7808      7804      7807      7809      7804      7807      7810
      7808      7807      7809      7808      7807      7810      7809      7807      7810
      7807      7810      7811      7807      7810      7812      7807      7810      7813
      7811      7810      7812      7811      7810      7813      7812      7810      7813
      7810      7813      7814      7810      7813      7815      7810      7813      7816
      7814      7813      7815      7814      7813      7816      7815      7813      7816
      7813      7816      7817      7813      7816      7818      7813      7816      7819
      7817      7816      7818      7817      7816      7819      7818      7816      7819
      7770      7820      7821      7770      7820      7822      7770      7820      7823
      7821      7820      7822      7821      7820      7823      7822      7820      7823
      7820      7823      7824      7820      7823      7825      7820      7823      7826
      7824      7823      7825      7824      7823      7826      7825      7823      7826
      7823      7826      7827      7823      7826      7828      7823      7826      7829
      7827      7826      7828      7827      7826      7829      7828      7826      7829
      7826      7829      7830      7826      7829      7831      7826      7829      7832
      7830      7829      7831      7830      7829      7832      7831      7829      7832
      7829      7832      7833      7829      7832      7834      7829      7832      7835
      7833      7832      7834      7833      7832      7835      7834      7832      7835
      7832      7835      7836      7832      7835      7837      7832      7835      7838
      7836      7835      7837      7836      7835      7838      7837      7835      7838
      7835      7838      7839      7835      7838      7840      7839      7838      7840
      7838      7840      7841      7838      7840      7842      7841      7840      7842
      7840      7842      7843      7840      7842      7844      7840      7842      7845
      7843      7842      7844      7843      7842      7845      7844      7842      7845
      7842      7845      7846      7842      7845      7847      7842      7845      7848
      7846      7845      7847      7846      7845      7848      7847      7845      7848
      7845      7848      7849      7845      7848      7850      7845      7848      7851
      7849      7848      7850      7849      7848      7851      7850      7848      7851
      7848      7851      7852      7848      7851      7853      7848      7851      7854
      7852      7851      7853      7852      7851      7854      7853      7851      7854
      7851      7854      7855      7851      7854      7856      7851      7854      7857
      7855      7854      7856      7855      7854      7857      7856      7854      7857
      7854      7857      7858      7854      7857      7859      7854      7857      7860
      7858      7857      7859      7858      7857      7860      7859      7857      7860
      7857      7860      7861      7857      7860      7862      7857      7860      7863
      7861      7860      7862      7861      7860      7863      7862      7860      7863
      7860      7863      7864      7860      7863      7865      7860      7863      7866
      7864      7863      7865      7864      7863      7866      7865      7863      7866
      7868      7867      7871      7868      7867      7875      7868      7867      7879
      7871      7867      7875      7871      7867      7879      7875      7867      7879
      7867      7868      7869      7867      7868      7870      7867      7868      7883
      7869      7868      7870      7869      7868      7883      7870      7868      7883
      7867      7871      7872      7867      7871      7873      7867      7871      7874
      7872      7871      7873      7872      7871      7874      7873      7871      7874
      7867      7875      7876      7867      7875      7877      7867      7875      7878
      7876      7875      7877      7876      7875      7878      7877      7875      7878
      7867      7879      7880      7867      7879      7881      7867      7879      7882
      7880      7879      7881      7880      7879      7882      7881      7879      7882
      7868      7883      7884      7868      7883      7885      7868      7883      7889
      7884      7883      7885      7884      7883      7889      7885      7883      7889
      7887      7886      7888      7887      7886      7889      7887      7886      7890
      7888      7886      7889      7888      7886      7890      7889      7886      7890
      7883      7889      7886      7886      7890      7891      7890      7891      7892
      7890      7891      7893      7890      7891      7894      7892      7891      7893
      7892      7891      7894      7893      7891      7894      7891      7894      7895
      7891      7894      7896      7891      7894      7902      7895      7894      7896
      7895      7894      7902      7896      7894      7902      7894      7896      7897
      7896      7897      7898      7896      7897      7899      7898      7897      7899
      7897      7899      7900      7897      7899      7901      7897      7899      7911
      7900      7899      7901      7900      7899      7911      7901      7899      7911
      7894      7902      7903      7894      7902      7904      7894      7902      7905
      7903      7902      7904      7903      7902      7905      7904      7902      7905
      7902      7905      7906      7905      7906      7907      7905      7906      7908
      7907      7906      7908      7906      7908      7909      7906      7908      7910
      7906      7908      7958      7909      7908      7910      7909      7908      7958
      7910      7908      7958      7899      7911      7912      7899      7911      7913
      7899      7911      7914      7912      7911      7913      7912      7911      7914
      7913      7911      7914      7911      7914      7915      7911      7914      7916
      7911      7914      7917      7915      7914      7916      7915      7914      7917
      7916      7914      7917      7914      7917      7918      7914      7917      7919
      7914      7917      7920      7918      7917      7919      7918      7917      7920
      7919      7917      7920      7917      7920      7921      7917      7920      7922
      7917      7920      7923      7921      7920      7922      7921      7920      7923
      7922      7920      7923      7920      7923      7924      7920      7923      7925
      7920      7923      7926      7924      7923      7925      7924      7923      7926
      7925      7923      7926      7923      7926      7927      7923      7926      7928
      7923      7926      7929      7927      7926      7928      7927      7926      7929
      7928      7926      7929      7926      7929      7930      7926      7929      7931
      7930      7929      7931      7929      7931      7932      7929      7931      7933
      7932      7931      7933      7931      7933      7934      7931      7933      7935
      7931      7933      7936      7934      7933      7935      7934      7933      7936
      7935      7933      7936      7933      7936      7937      7933      7936      7938
      7933      7936      7939      7937      7936      7938      7937      7936      7939
      7938      7936      7939      7936      7939      7940      7936      7939      7941
      7936      7939      7942      7940      7939      7941      7940      7939      7942
      7941      7939      7942      7939      7942      7943      7939      7942      7944
      7939      7942      7945      7943      7942      7944      7943      7942      7945
      7944      7942      7945      7942      7945      7946      7942      7945      7947
      7942      7945      7948      7946      7945      7947      7946      7945      7948
      7947      7945      7948      7945      7948      7949      7945      7948      7950
      7945      7948      7951      7949      7948      7950      7949      7948      7951
      7950      7948      7951      7948      7951      7952      7948      7951      7953
      7948      7951      7954      7952      7951      7953      7952      7951      7954
      7953      7951      7954      7951      7954      7955      7951      7954      7956
      7951      7954      7957      7955      7954      7956      7955      7954      7957
      7956      7954      7957      7908      7958      7959      7908      7958      7960
      7908      7958      7961      7959      7958      7960      7959      7958      7961
      7960      7958      7961      7958      7961      7962      7958      7961      7963
      7958      7961      7964      7962      7961      7963      7962      7961      7964
      7963      7961      7964      7961      7964      7965      7961      7964      7966
      7961      7964      7967      7965      7964      7966      7965      7964      7967
      7966      7964      7967      7964      7967      7968      7964      7967      7969
      7964      7967      7970      7968      7967      7969      7968      7967      7970
      7969      7967      7970      7967      7970      7971      7967      7970      7972
      7967      7970      7973      7971      7970      7972      7971      7970      7973
      7972      7970      7973      7970      7973      7974      7970      7973      7975
      7970      7973      7976      7974      7973      7975      7974      7973      7976
      7975      7973      7976      7973      7976      7977      7973      7976      7978
      7977      7976      7978      7976      7978      7979      7976      7978      7980
      7979      7978      7980      7978      7980      7981      7978      7980      7982
      7978      7980      7983      7981      7980      7982      7981      7980      7983
      7982      7980      7983      7980      7983      7984      7980      7983      7985
      7980      7983      7986      7984      7983      7985      7984      7983      7986
      7985      7983      7986      7983      7986      7987      7983      7986      7988
      7983      7986      7989      7987      7986      7988      7987      7986      7989
      7988      7986      7989      7986      7989      7990      7986      7989      7991
      7986      7989      7992      7990      7989      7991      7990      7989      7992
      7991      7989      7992      7989      7992      7993      7989      7992      7994
      7989      7992      7995      7993      7992      7994      7993      7992      7995
      7994      7992      7995      7992      7995      7996      7992      7995      7997
      7992      7995      7998      7996      7995      7997      7996      7995      7998
      7997      7995      7998      7995      7998      7999      7995      7998      8000
      7995      7998      8001      7999      7998      8000      7999      7998      8001
      8000      7998      8001      7998      8001      8002      7998      8001      8003
      7998      8001      8004      8002      8001      8003      8002      8001      8004
      8003      8001      8004      8006      8005      8009      8006      8005      8013
      8006      8005      8017      8009      8005      8013      8009      8005      8017
      8013      8005      8017      8005      8006      8007      8005      8006      8008
      8005      8006      8021      8007      8006      8008      8007      8006      8021
      8008      8006      8021      8005      8009      8010      8005      8009      8011
      8005      8009      8012      8010      8009      8011      8010      8009      8012
      8011      8009      8012      8005      8013      8014      8005      8013      8015
      8005      8013      8016      8014      8013      8015      8014      8013      8016
      8015      8013      8016      8005      8017      8018      8005      8017      8019
      8005      8017      8020      8018      8017      8019      8018      8017      8020
      8019      8017      8020      8006      8021      8022      8006      8021      8023
      8006      8021      8027      8022      8021      8023      8022      8021      8027
      8023      8021      8027      8025      8024      8026      8025      8024      8027
      8025      8024      8028      8026      8024      8027      8026      8024      8028
      8027      8024      8028      8021      8027      8024      8024      8028      8029
      8028      8029      8030      8028      8029      8031      8028      8029      8032
      8030      8029      8031      8030      8029      8032      8031      8029      8032
      8029      8032      8033      8029      8032      8034      8029      8032      8040
      8033      8032      8034      8033      8032      8040      8034      8032      8040
      8032      8034      8035      8034      8035      8036      8034      8035      8037
      8036      8035      8037      8035      8037      8038      8035      8037      8039
      8035      8037      8049      8038      8037      8039      8038      8037      8049
      8039      8037      8049      8032      8040      8041      8032      8040      8042
      8032      8040      8043      8041      8040      8042      8041      8040      8043
      8042      8040      8043      8040      8043      8044      8043      8044      8045
      8043      8044      8046      8045      8044      8046      8044      8046      8047
      8044      8046      8048      8044      8046      8096      8047      8046      8048
      8047      8046      8096      8048      8046      8096      8037      8049      8050
      8037      8049      8051      8037      8049      8052      8050      8049      8051
      8050      8049      8052      8051      8049      8052      8049      8052      8053
      8049      8052      8054      8049      8052      8055      8053      8052      8054
      8053      8052      8055      8054      8052      8055      8052      8055      8056
      8052      8055      8057      8052      8055      8058      8056      8055      8057
      8056      8055      8058      8057      8055      8058      8055      8058      8059
      8055      8058      8060      8055      8058      8061      8059      8058      8060
      8059      8058      8061      8060      8058      8061      8058      8061      8062
      8058      8061      8063      8058      8061      8064      8062      8061      8063
      8062      8061      8064      8063      8061      8064      8061      8064      8065
      8061      8064      8066      8061      8064      8067      8065      8064      8066
      8065      8064      8067      8066      8064      8067      8064      8067      8068
      8064      8067      8069      8068      8067      8069      8067      8069      8070
      8067      8069      8071      8070      8069      8071      8069      8071      8072
      8069      8071      8073      8069      8071      8074      8072      8071      8073
      8072      8071      8074      8073      8071      8074      8071      8074      8075
      8071      8074      8076      8071      8074      8077      8075      8074      8076
      8075      8074      8077      8076      8074      8077      8074      8077      8078
      8074      8077      8079      8074      8077      8080      8078      8077      8079
      8078      8077      8080      8079      8077      8080      8077      8080      8081
      8077      8080      8082      8077      8080      8083      8081      8080      8082
      8081      8080      8083      8082      8080      8083      8080      8083      8084
      8080      8083      8085      8080      8083      8086      8084      8083      8085
      8084      8083      8086      8085      8083      8086      8083      8086      8087
      8083      8086      8088      8083      8086      8089      8087      8086      8088
      8087      8086      8089      8088      8086      8089      8086      8089      8090
      8086      8089      8091      8086      8089      8092      8090      8089      8091
      8090      8089      8092      8091      8089      8092      8089      8092      8093
      8089      8092      8094      8089      8092      8095      8093      8092      8094
      8093      8092      8095      8094      8092      8095      8046      8096      8097
      8046      8096      8098      8046      8096      8099      8097      8096      8098
      8097      8096      8099      8098      8096      8099      8096      8099      8100
      8096      8099      8101      8096      8099      8102      8100      8099      8101
      8100      8099      8102      8101      8099      8102      8099      8102      8103
      8099      8102      8104      8099      8102      8105      8103      8102      8104
      8103      8102      8105      8104      8102      8105      8102      8105      8106
      8102      8105      8107      8102      8105      8108      8106      8105      8107
      8106      8105      8108      8107      8105      8108      8105      8108      8109
      8105      8108      8110      8105      8108      8111      8109      8108      8110
      8109      8108      8111      8110      8108      8111      8108      8111      8112
      8108      8111      8113      8108      8111      8114      8112      8111      8113
      8112      8111      8114      8113      8111      8114      8111      8114      8115
      8111      8114      8116      8115      8114      8116      8114      8116      8117
      8114      8116      8118      8117      8116      8118      8116      8118      8119
      8116      8118      8120      8116      8118      8121      8119      8118      8120
      8119      8118      8121      8120      8118      8121      8118      8121      8122
      8118      8121      8123      8118      8121      8124      8122      8121      8123
      8122      8121      8124      8123      8121      8124      8121      8124      8125
      8121      8124      8126      8121      8124      8127      8125      8124      8126
      8125      8124      8127      8126      8124      8127      8124      8127      8128
      8124      8127      8129      8124      8127      8130      8128      8127      8129
      8128      8127      8130      8129      8127      8130      8127      8130      8131
      8127      8130      8132      8127      8130      8133      8131      8130      8132
      8131      8130      8133      8132      8130      8133      8130      8133      8134
      8130      8133      8135      8130      8133      8136      8134      8133      8135
      8134      8133      8136      8135      8133      8136      8133      8136      8137
      8133      8136      8138      8133      8136      8139      8137      8136      8138
      8137      8136      8139      8138      8136      8139      8136      8139      8140
      8136      8139      8141      8136      8139      8142      8140      8139      8141
      8140      8139      8142      8141      8139      8142      8144      8143      8147
      8144      8143      8151      8144      8143      8155      8147      8143      8151
      8147      8143      8155      8151      8143      8155      8143      8144      8145
      8143      8144      8146      8143      8144      8159      8145      8144      8146
      8145      8144      8159      8146      8144      8159      8143      8147      8148
      8143      8147      8149      8143      8147      8150      8148      8147      8149
      8148      8147      8150      8149      8147      8150      8143      8151      8152
      8143      8151      8153      8143      8151      8154      8152      8151      8153
      8152      8151      8154      8153      8151      8154      8143      8155      8156
      8143      8155      8157      8143      8155      8158      8156      8155      8157
      8156      8155      8158      8157      8155      8158      8144      8159      8160
      8144      8159      8161      8144      8159      8165      8160      8159      8161
      8160      8159      8165      8161      8159      8165      8163      8162      8164
      8163      8162      8165      8163      8162      8166      8164      8162      8165
      8164      8162      8166      8165      8162      8166      8159      8165      8162
      8162      8166      8167      8166      8167      8168      8166      8167      8169
      8166      8167      8170      8168      8167      8169      8168      8167      8170
      8169      8167      8170      8167      8170      8171      8167      8170      8172
      8167      8170      8178      8171      8170      8172      8171      8170      8178
      8172      8170      8178      8170      8172      8173      8172      8173      8174
      8172      8173      8175      8174      8173      8175      8173      8175      8176
      8173      8175      8177      8173      8175      8187      8176      8175      8177
      8176      8175      8187      8177      8175      8187      8170      8178      8179
      8170      8178      8180      8170      8178      8181      8179      8178      8180
      8179      8178      8181      8180      8178      8181      8178      8181      8182
      8181      8182      8183      8181      8182      8184      8183      8182      8184
      8182      8184      8185      8182      8184      8186      8182      8184      8234
      8185      8184      8186      8185      8184      8234      8186      8184      8234
      8175      8187      8188      8175      8187      8189      8175      8187      8190
      8188      8187      8189      8188      8187      8190      8189      8187      8190
      8187      8190      8191      8187      8190      8192      8187      8190      8193
      8191      8190      8192      8191      8190      8193      8192      8190      8193
      8190      8193      8194      8190      8193      8195      8190      8193      8196
      8194      8193      8195      8194      8193      8196      8195      8193      8196
      8193      8196      8197      8193      8196      8198      8193      8196      8199
      8197      8196      8198      8197      8196      8199      8198      8196      8199
      8196      8199      8200      8196      8199      8201      8196      8199      8202
      8200      8199      8201      8200      8199      8202      8201      8199      8202
      8199      8202      8203      8199      8202      8204      8199      8202      8205
      8203      8202      8204      8203      8202      8205      8204      8202      8205
      8202      8205      8206      8202      8205      8207      8206      8205      8207
      8205      8207      8208      8205      8207      8209      8208      8207      8209
      8207      8209      8210      8207      8209      8211      8207      8209      8212
      8210      8209      8211      8210      8209      8212      8211      8209      8212
      8209      8212      8213      8209      8212      8214      8209      8212      8215
      8213      8212      8214      8213      8212      8215      8214      8212      8215
      8212      8215      8216      8212      8215      8217      8212      8215      8218
      8216      8215      8217      8216      8215      8218      8217      8215      8218
      8215      8218      8219      8215      8218      8220      8215      8218      8221
      8219      8218      8220      8219      8218      8221      8220      8218      8221
      8218      8221      8222      8218      8221      8223      8218      8221      8224
      8222      8221      8223      8222      8221      8224      8223      8221      8224
      8221      8224      8225      8221      8224      8226      8221      8224      8227
      8225      8224      8226      8225      8224      8227      8226      8224      8227
      8224      8227      8228      8224      8227      8229      8224      8227      8230
      8228      8227      8229      8228      8227      8230      8229      8227      8230
      8227      8230      8231      8227      8230      8232      8227      8230      8233
      8231      8230      8232      8231      8230      8233      8232      8230      8233
      8184      8234      8235      8184      8234      8236      8184      8234      8237
      8235      8234      8236      8235      8234      8237      8236      8234      8237
      8234      8237      8238      8234      8237      8239      8234      8237      8240
      8238      8237      8239      8238      8237      8240      8239      8237      8240
      8237      8240      8241      8237      8240      8242      8237      8240      8243
      8241      8240      8242      8241      8240      8243      8242      8240      8243
      8240      8243      8244      8240      8243      8245      8240      8243      8246
      8244      8243      8245      8244      8243      8246      8245      8243      8246
      8243      8246      8247      8243      8246      8248      8243      8246      8249
      8247      8246      8248      8247      8246      8249      8248      8246      8249
      8246      8249      8250      8246      8249      8251      8246      8249      8252
      8250      8249      8251      8250      8249      8252      8251      8249      8252
      8249      8252      8253      8249      8252      8254      8253      8252      8254
      8252      8254      8255      8252      8254      8256      8255      8254      8256
      8254      8256      8257      8254      8256      8258      8254      8256      8259
      8257      8256      8258      8257      8256      8259      8258      8256      8259
      8256      8259      8260      8256      8259      8261      8256      8259      8262
      8260      8259      8261      8260      8259      8262      8261      8259      8262
      8259      8262      8263      8259      8262      8264      8259      8262      8265
      8263      8262      8264      8263      8262      8265      8264      8262      8265
      8262      8265      8266      8262      8265      8267      8262      8265      8268
      8266      8265      8267      8266      8265      8268      8267      8265      8268
      8265      8268      8269      8265      8268      8270      8265      8268      8271
      8269      8268      8270      8269      8268      8271      8270      8268      8271
      8268      8271      8272      8268      8271      8273      8268      8271      8274
      8272      8271      8273      8272      8271      8274      8273      8271      8274
      8271      8274      8275      8271      8274      8276      8271      8274      8277
      8275      8274      8276      8275      8274      8277      8276      8274      8277
      8274      8277      8278      8274      8277      8279      8274      8277      8280
      8278      8277      8279      8278      8277      8280      8279      8277      8280
      8282      8281      8285      8282      8281      8289      8282      8281      8293
      8285      8281      8289      8285      8281      8293      8289      8281      8293
      8281      8282      8283      8281      8282      8284      8281      8282      8297
      8283      8282      8284      8283      8282      8297      8284      8282      8297
      8281      8285      8286      8281      8285      8287      8281      8285      8288
      8286      8285      8287      8286      8285      8288      8287      8285      8288
      8281      8289      8290      8281      8289      8291      8281      8289      8292
      8290      8289      8291      8290      8289      8292      8291      8289      8292
      8281      8293      8294      8281      8293      8295      8281      8293      8296
      8294      8293      8295      8294      8293      8296      8295      8293      8296
      8282      8297      8298      8282      8297      8299      8282      8297      8303
      8298      8297      8299      8298      8297      8303      8299      8297      8303
      8301      8300      8302      8301      8300      8303      8301      8300      8304
      8302      8300      8303      8302      8300      8304      8303      8300      8304
      8297      8303      8300      8300      8304      8305      8304      8305      8306
      8304      8305      8307      8304      8305      8308      8306      8305      8307
      8306      8305      8308      8307      8305      8308      8305      8308      8309
      8305      8308      8310      8305      8308      8316      8309      8308      8310
      8309      8308      8316      8310      8308      8316      8308      8310      8311
      8310      8311      8312      8310      8311      8313      8312      8311      8313
      8311      8313      8314      8311      8313      8315      8311      8313      8325
      8314      8313      8315      8314      8313      8325      8315      8313      8325
      8308      8316      8317      8308      8316      8318      8308      8316      8319
      8317      8316      8318      8317      8316      8319      8318      8316      8319
      8316      8319      8320      8319      8320      8321      8319      8320      8322
      8321      8320      8322      8320      8322      8323      8320      8322      8324
      8320      8322      8372      8323      8322      8324      8323      8322      8372
      8324      8322      8372      8313      8325      8326      8313      8325      8327
      8313      8325      8328      8326      8325      8327      8326      8325      8328
      8327      8325      8328      8325      8328      8329      8325      8328      8330
      8325      8328      8331      8329      8328      8330      8329      8328      8331
      8330      8328      8331      8328      8331      8332      8328      8331      8333
      8328      8331      8334      8332      8331      8333      8332      8331      8334
      8333      8331      8334      8331      8334      8335      8331      8334      8336
      8331      8334      8337      8335      8334      8336      8335      8334      8337
      8336      8334      8337      8334      8337      8338      8334      8337      8339
      8334      8337      8340      8338      8337      8339      8338      8337      8340
      8339      8337      8340      8337      8340      8341      8337      8340      8342
      8337      8340      8343      8341      8340      8342      8341      8340      8343
      8342      8340      8343      8340      8343      8344      8340      8343      8345
      8344      8343      8345      8343      8345      8346      8343      8345      8347
      8346      8345      8347      8345      8347      8348      8345      8347      8349
      8345      8347      8350      8348      8347      8349      8348      8347      8350
      8349      8347      8350      8347      8350      8351      8347      8350      8352
      8347      8350      8353      8351      8350      8352      8351      8350      8353
      8352      8350      8353      8350      8353      8354      8350      8353      8355
      8350      8353      8356      8354      8353      8355      8354      8353      8356
      8355      8353      8356      8353      8356      8357      8353      8356      8358
      8353      8356      8359      8357      8356      8358      8357      8356      8359
      8358      8356      8359      8356      8359      8360      8356      8359      8361
      8356      8359      8362      8360      8359      8361      8360      8359      8362
      8361      8359      8362      8359      8362      8363      8359      8362      8364
      8359      8362      8365      8363      8362      8364      8363      8362      8365
      8364      8362      8365      8362      8365      8366      8362      8365      8367
      8362      8365      8368      8366      8365      8367      8366      8365      8368
      8367      8365      8368      8365      8368      8369      8365      8368      8370
      8365      8368      8371      8369      8368      8370      8369      8368      8371
      8370      8368      8371      8322      8372      8373      8322      8372      8374
      8322      8372      8375      8373      8372      8374      8373      8372      8375
      8374      8372      8375      8372      8375      8376      8372      8375      8377
      8372      8375      8378      8376      8375      8377      8376      8375      8378
      8377      8375      8378      8375      8378      8379      8375      8378      8380
      8375      8378      8381      8379      8378      8380      8379      8378      8381
      8380      8378      8381      8378      8381      8382      8378      8381      8383
      8378      8381      8384      8382      8381      8383      8382      8381      8384
      8383      8381      8384      8381      8384      8385      8381      8384      8386
      8381      8384      8387      8385      8384      8386      8385      8384      8387
      8386      8384      8387      8384      8387      8388      8384      8387      8389
      8384      8387      8390      8388      8387      8389      8388      8387      8390
      8389      8387      8390      8387      8390      8391      8387      8390      8392
      8391      8390      8392      8390      8392      8393      8390      8392      8394
      8393      8392      8394      8392      8394      8395      8392      8394      8396
      8392      8394      8397      8395      8394      8396      8395      8394      8397
      8396      8394      8397      8394      8397      8398      8394      8397      8399
      8394      8397      8400      8398      8397      8399      8398      8397      8400
      8399      8397      8400      8397      8400      8401      8397      8400      8402
      8397      8400      8403      8401      8400      8402      8401      8400      8403
      8402      8400      8403      8400      8403      8404      8400      8403      8405
      8400      8403      8406      8404      8403      8405      8404      8403      8406
      8405      8403      8406      8403      8406      8407      8403      8406      8408
      8403      8406      8409      8407      8406      8408      8407      8406      8409
      8408      8406      8409      8406      8409      8410      8406      8409      8411
      8406      8409      8412      8410      8409      8411      8410      8409      8412
      8411      8409      8412      8409      8412      8413      8409      8412      8414
      8409      8412      8415      8413      8412      8414      8413      8412      8415
      8414      8412      8415      8412      8415      8416      8412      8415      8417
      8412      8415      8418      8416      8415      8417      8416      8415      8418
      8417      8415      8418      8420      8419      8423      8420      8419      8427
      8420      8419      8431      8423      8419      8427      8423      8419      8431
      8427      8419      8431      8419      8420      8421      8419      8420      8422
      8419      8420      8435      8421      8420      8422      8421      8420      8435
      8422      8420      8435      8419      8423      8424      8419      8423      8425
      8419      8423      8426      8424      8423      8425      8424      8423      8426
      8425      8423      8426      8419      8427      8428      8419      8427      8429
      8419      8427      8430      8428      8427      8429      8428      8427      8430
      8429      8427      8430      8419      8431      8432      8419      8431      8433
      8419      8431      8434      8432      8431      8433      8432      8431      8434
      8433      8431      8434      8420      8435      8436      8420      8435      8437
      8420      8435      8441      8436      8435      8437      8436      8435      8441
      8437      8435      8441      8439      8438      8440      8439      8438      8441
      8439      8438      8442      8440      8438      8441      8440      8438      8442
      8441      8438      8442      8435      8441      8438      8438      8442      8443
      8442      8443      8444      8442      8443      8445      8442      8443      8446
      8444      8443      8445      8444      8443      8446      8445      8443      8446
      8443      8446      8447      8443      8446      8448      8443      8446      8454
      8447      8446      8448      8447      8446      8454      8448      8446      8454
      8446      8448      8449      8448      8449      8450      8448      8449      8451
      8450      8449      8451      8449      8451      8452      8449      8451      8453
      8449      8451      8463      8452      8451      8453      8452      8451      8463
      8453      8451      8463      8446      8454      8455      8446      8454      8456
      8446      8454      8457      8455      8454      8456      8455      8454      8457
      8456      8454      8457      8454      8457      8458      8457      8458      8459
      8457      8458      8460      8459      8458      8460      8458      8460      8461
      8458      8460      8462      8458      8460      8510      8461      8460      8462
      8461      8460      8510      8462      8460      8510      8451      8463      8464
      8451      8463      8465      8451      8463      8466      8464      8463      8465
      8464      8463      8466      8465      8463      8466      8463      8466      8467
      8463      8466      8468      8463      8466      8469      8467      8466      8468
      8467      8466      8469      8468      8466      8469      8466      8469      8470
      8466      8469      8471      8466      8469      8472      8470      8469      8471
      8470      8469      8472      8471      8469      8472      8469      8472      8473
      8469      8472      8474      8469      8472      8475      8473      8472      8474
      8473      8472      8475      8474      8472      8475      8472      8475      8476
      8472      8475      8477      8472      8475      8478      8476      8475      8477
      8476      8475      8478      8477      8475      8478      8475      8478      8479
      8475      8478      8480      8475      8478      8481      8479      8478      8480
      8479      8478      8481      8480      8478      8481      8478      8481      8482
      8478      8481      8483      8482      8481      8483      8481      8483      8484
      8481      8483      8485      8484      8483      8485      8483      8485      8486
      8483      8485      8487      8483      8485      8488      8486      8485      8487
      8486      8485      8488      8487      8485      8488      8485      8488      8489
      8485      8488      8490      8485      8488      8491      8489      8488      8490
      8489      8488      8491      8490      8488      8491      8488      8491      8492
      8488      8491      8493      8488      8491      8494      8492      8491      8493
      8492      8491      8494      8493      8491      8494      8491      8494      8495
      8491      8494      8496      8491      8494      8497      8495      8494      8496
      8495      8494      8497      8496      8494      8497      8494      8497      8498
      8494      8497      8499      8494      8497      8500      8498      8497      8499
      8498      8497      8500      8499      8497      8500      8497      8500      8501
      8497      8500      8502      8497      8500      8503      8501      8500      8502
      8501      8500      8503      8502      8500      8503      8500      8503      8504
      8500      8503      8505      8500      8503      8506      8504      8503      8505
      8504      8503      8506      8505      8503      8506      8503      8506      8507
      8503      8506      8508      8503      8506      8509      8507      8506      8508
      8507      8506      8509      8508      8506      8509      8460      8510      8511
      8460      8510      8512      8460      8510      8513      8511      8510      8512
      8511      8510      8513      8512      8510      8513      8510      8513      8514
      8510      8513      8515      8510      8513      8516      8514      8513      8515
      8514      8513      8516      8515      8513      8516      8513      8516      8517
      8513      8516      8518      8513      8516      8519      8517      8516      8518
      8517      8516      8519      8518      8516      8519      8516      8519      8520
      8516      8519      8521      8516      8519      8522      8520      8519      8521
      8520      8519      8522      8521      8519      8522      8519      8522      8523
      8519      8522      8524      8519      8522      8525      8523      8522      8524
      8523      8522      8525      8524      8522      8525      8522      8525      8526
      8522      8525      8527      8522      8525      8528      8526      8525      8527
      8526      8525      8528      8527      8525      8528      8525      8528      8529
      8525      8528      8530      8529      8528      8530      8528      8530      8531
      8528      8530      8532      8531      8530      8532      8530      8532      8533
      8530      8532      8534      8530      8532      8535      8533      8532      8534
      8533      8532      8535      8534      8532      8535      8532      8535      8536
      8532      8535      8537      8532      8535      8538      8536      8535      8537
      8536      8535      8538      8537      8535      8538      8535      8538      8539
      8535      8538      8540      8535      8538      8541      8539      8538      8540
      8539      8538      8541      8540      8538      8541      8538      8541      8542
      8538      8541      8543      8538      8541      8544      8542      8541      8543
      8542      8541      8544      8543      8541      8544      8541      8544      8545
      8541      8544      8546      8541      8544      8547      8545      8544      8546
      8545      8544      8547      8546      8544      8547      8544      8547      8548
      8544      8547      8549      8544      8547      8550      8548      8547      8549
      8548      8547      8550      8549      8547      8550      8547      8550      8551
      8547      8550      8552      8547      8550      8553      8551      8550      8552
      8551      8550      8553      8552      8550      8553      8550      8553      8554
      8550      8553      8555      8550      8553      8556      8554      8553      8555
      8554      8553      8556      8555      8553      8556      8558      8557      8561
      8558      8557      8565      8558      8557      8569      8561      8557      8565
      8561      8557      8569      8565      8557      8569      8557      8558      8559
      8557      8558      8560      8557      8558      8573      8559      8558      8560
      8559      8558      8573      8560      8558      8573      8557      8561      8562
      8557      8561      8563      8557      8561      8564      8562      8561      8563
      8562      8561      8564      8563      8561      8564      8557      8565      8566
      8557      8565      8567      8557      8565      8568      8566      8565      8567
      8566      8565      8568      8567      8565      8568      8557      8569      8570
      8557      8569      8571      8557      8569      8572      8570      8569      8571
      8570      8569      8572      8571      8569      8572      8558      8573      8574
      8558      8573      8575      8558      8573      8579      8574      8573      8575
      8574      8573      8579      8575      8573      8579      8577      8576      8578
      8577      8576      8579      8577      8576      8580      8578      8576      8579
      8578      8576      8580      8579      8576      8580      8573      8579      8576
      8576      8580      8581      8580      8581      8582      8580      8581      8583
      8580      8581      8584      8582      8581      8583      8582      8581      8584
      8583      8581      8584      8581      8584      8585      8581      8584      8586
      8581      8584      8592      8585      8584      8586      8585      8584      8592
      8586      8584      8592      8584      8586      8587      8586      8587      8588
      8586      8587      8589      8588      8587      8589      8587      8589      8590
      8587      8589      8591      8587      8589      8601      8590      8589      8591
      8590      8589      8601      8591      8589      8601      8584      8592      8593
      8584      8592      8594      8584      8592      8595      8593      8592      8594
      8593      8592      8595      8594      8592      8595      8592      8595      8596
      8595      8596      8597      8595      8596      8598      8597      8596      8598
      8596      8598      8599      8596      8598      8600      8596      8598      8648
      8599      8598      8600      8599      8598      8648      8600      8598      8648
      8589      8601      8602      8589      8601      8603      8589      8601      8604
      8602      8601      8603      8602      8601      8604      8603      8601      8604
      8601      8604      8605      8601      8604      8606      8601      8604      8607
      8605      8604      8606      8605      8604      8607      8606      8604      8607
      8604      8607      8608      8604      8607      8609      8604      8607      8610
      8608      8607      8609      8608      8607      8610      8609      8607      8610
      8607      8610      8611      8607      8610      8612      8607      8610      8613
      8611      8610      8612      8611      8610      8613      8612      8610      8613
      8610      8613      8614      8610      8613      8615      8610      8613      8616
      8614      8613      8615      8614      8613      8616      8615      8613      8616
      8613      8616      8617      8613      8616      8618      8613      8616      8619
      8617      8616      8618      8617      8616      8619      8618      8616      8619
      8616      8619      8620      8616      8619      8621      8620      8619      8621
      8619      8621      8622      8619      8621      8623      8622      8621      8623
      8621      8623      8624      8621      8623      8625      8621      8623      8626
      8624      8623      8625      8624      8623      8626      8625      8623      8626
      8623      8626      8627      8623      8626      8628      8623      8626      8629
      8627      8626      8628      8627      8626      8629      8628      8626      8629
      8626      8629      8630      8626      8629      8631      8626      8629      8632
      8630      8629      8631      8630      8629      8632      8631      8629      8632
      8629      8632      8633      8629      8632      8634      8629      8632      8635
      8633      8632      8634      8633      8632      8635      8634      8632      8635
      8632      8635      8636      8632      8635      8637      8632      8635      8638
      8636      8635      8637      8636      8635      8638      8637      8635      8638
      8635      8638      8639      8635      8638      8640      8635      8638      8641
      8639      8638      8640      8639      8638      8641      8640      8638      8641
      8638      8641      8642      8638      8641      8643      8638      8641      8644
      8642      8641      8643      8642      8641      8644      8643      8641      8644
      8641      8644      8645      8641      8644      8646      8641      8644      8647
      8645      8644      8646      8645      8644      8647      8646      8644      8647
      8598      8648      8649      8598      8648      8650      8598      8648      8651
      8649      8648      8650      8649      8648      8651      8650      8648      8651
      8648      8651      8652      8648      8651      8653      8648      8651      8654
      8652      8651      8653      8652      8651      8654      8653      8651      8654
      8651      8654      8655      8651      8654      8656      8651      8654      8657
      8655      8654      8656      8655      8654      8657      8656      8654      8657
      8654      8657      8658      8654      8657      8659      8654      8657      8660
      8658      8657      8659      8658      8657      8660      8659      8657      8660
      8657      8660      8661      8657      8660      8662      8657      8660      8663
      8661      8660      8662      8661      8660      8663      8662      8660      8663
      8660      8663      8664      8660      8663      8665      8660      8663      8666
      8664      8663      8665      8664      8663      8666      8665      8663      8666
      8663      8666      8667      8663      8666      8668      8667      8666      8668
      8666      8668      8669      8666      8668      8670      8669      8668      8670
      8668      8670      8671      8668      8670      8672      8668      8670      8673
      8671      8670      8672      8671      8670      8673      8672      8670      8673
      8670      8673      8674      8670      8673      8675      8670      8673      8676
      8674      8673      8675      8674      8673      8676      8675      8673      8676
      8673      8676      8677      8673      8676      8678      8673      8676      8679
      8677      8676      8678      8677      8676      8679      8678      8676      8679
      8676      8679      8680      8676      8679      8681      8676      8679      8682
      8680      8679      8681      8680      8679      8682      8681      8679      8682
      8679      8682      8683      8679      8682      8684      8679      8682      8685
      8683      8682      8684      8683      8682      8685      8684      8682      8685
      8682      8685      8686      8682      8685      8687      8682      8685      8688
      8686      8685      8687      8686      8685      8688      8687      8685      8688
      8685      8688      8689      8685      8688      8690      8685      8688      8691
      8689      8688      8690      8689      8688      8691      8690      8688      8691
      8688      8691      8692      8688      8691      8693      8688      8691      8694
      8692      8691      8693      8692      8691      8694      8693      8691      8694
      8696      8695      8699      8696      8695      8703      8696      8695      8707
      8699      8695      8703      8699      8695      8707      8703      8695      8707
      8695      8696      8697      8695      8696      8698      8695      8696      8711
      8697      8696      8698      8697      8696      8711      8698      8696      8711
      8695      8699      8700      8695      8699      8701      8695      8699      8702
      8700      8699      8701      8700      8699      8702      8701      8699      8702
      8695      8703      8704      8695      8703      8705      8695      8703      8706
      8704      8703      8705      8704      8703      8706      8705      8703      8706
      8695      8707      8708      8695      8707      8709      8695      8707      8710
      8708      8707      8709      8708      8707      8710      8709      8707      8710
      8696      8711      8712      8696      8711      8713      8696      8711      8717
      8712      8711      8713      8712      8711      8717      8713      8711      8717
      8715      8714      8716      8715      8714      8717      8715      8714      8718
      8716      8714      8717      8716      8714      8718      8717      8714      8718
      8711      8717      8714      8714      8718      8719      8718      8719      8720
      8718      8719      8721      8718      8719      8722      8720      8719      8721
      8720      8719      8722      8721      8719      8722      8719      8722      8723
      8719      8722      8724      8719      8722      8730      8723      8722      8724
      8723      8722      8730      8724      8722      8730      8722      8724      8725
      8724      8725      8726      8724      8725      8727      8726      8725      8727
      8725      8727      8728      8725      8727      8729      8725      8727      8739
      8728      8727      8729      8728      8727      8739      8729      8727      8739
      8722      8730      8731      8722      8730      8732      8722      8730      8733
      8731      8730      8732      8731      8730      8733      8732      8730      8733
      8730      8733      8734      8733      8734      8735      8733      8734      8736
      8735      8734      8736      8734      8736      8737      8734      8736      8738
      8734      8736      8786      8737      8736      8738      8737      8736      8786
      8738      8736      8786      8727      8739      8740      8727      8739      8741
      8727      8739      8742      8740      8739      8741      8740      8739      8742
      8741      8739      8742      8739      8742      8743      8739      8742      8744
      8739      8742      8745      8743      8742      8744      8743      8742      8745
      8744      8742      8745      8742      8745      8746      8742      8745      8747
      8742      8745      8748      8746      8745      8747      8746      8745      8748
      8747      8745      8748      8745      8748      8749      8745      8748      8750
      8745      8748      8751      8749      8748      8750      8749      8748      8751
      8750      8748      8751      8748      8751      8752      8748      8751      8753
      8748      8751      8754      8752      8751      8753      8752      8751      8754
      8753      8751      8754      8751      8754      8755      8751      8754      8756
      8751      8754      8757      8755      8754      8756      8755      8754      8757
      8756      8754      8757      8754      8757      8758      8754      8757      8759
      8758      8757      8759      8757      8759      8760      8757      8759      8761
      8760      8759      8761      8759      8761      8762      8759      8761      8763
      8759      8761      8764      8762      8761      8763      8762      8761      8764
      8763      8761      8764      8761      8764      8765      8761      8764      8766
      8761      8764      8767      8765      8764      8766      8765      8764      8767
      8766      8764      8767      8764      8767      8768      8764      8767      8769
      8764      8767      8770      8768      8767      8769      8768      8767      8770
      8769      8767      8770      8767      8770      8771      8767      8770      8772
      8767      8770      8773      8771      8770      8772      8771      8770      8773
      8772      8770      8773      8770      8773      8774      8770      8773      8775
      8770      8773      8776      8774      8773      8775      8774      8773      8776
      8775      8773      8776      8773      8776      8777      8773      8776      8778
      8773      8776      8779      8777      8776      8778      8777      8776      8779
      8778      8776      8779      8776      8779      8780      8776      8779      8781
      8776      8779      8782      8780      8779      8781      8780      8779      8782
      8781      8779      8782      8779      8782      8783      8779      8782      8784
      8779      8782      8785      8783      8782      8784      8783      8782      8785
      8784      8782      8785      8736      8786      8787      8736      8786      8788
      8736      8786      8789      8787      8786      8788      8787      8786      8789
      8788      8786      8789      8786      8789      8790      8786      8789      8791
      8786      8789      8792      8790      8789      8791      8790      8789      8792
      8791      8789      8792      8789      8792      8793      8789      8792      8794
      8789      8792      8795      8793      8792      8794      8793      8792      8795
      8794      8792      8795      8792      8795      8796      8792      8795      8797
      8792      8795      8798      8796      8795      8797      8796      8795      8798
      8797      8795      8798      8795      8798      8799      8795      8798      8800
      8795      8798      8801      8799      8798      8800      8799      8798      8801
      8800      8798      8801      8798      8801      8802      8798      8801      8803
      8798      8801      8804      8802      8801      8803      8802      8801      8804
      8803      8801      8804      8801      8804      8805      8801      8804      8806
      8805      8804      8806      8804      8806      8807      8804      8806      8808
      8807      8806      8808      8806      8808      8809      8806      8808      8810
      8806      8808      8811      8809      8808      8810      8809      8808      8811
      8810      8808      8811      8808      8811      8812      8808      8811      8813
      8808      8811      8814      8812      8811      8813      8812      8811      8814
      8813      8811      8814      8811      8814      8815      8811      8814      8816
      8811      8814      8817      8815      8814      8816      8815      8814      8817
      8816      8814      8817      8814      8817      8818      8814      8817      8819
      8814      8817      8820      8818      8817      8819      8818      8817      8820
      8819      8817      8820      8817      8820      8821      8817      8820      8822
      8817      8820      8823      8821      8820      8822      8821      8820      8823
      8822      8820      8823      8820      8823      8824      8820      8823      8825
      8820      8823      8826      8824      8823      8825      8824      8823      8826
      8825      8823      8826      8823      8826      8827      8823      8826      8828
      8823      8826      8829      8827      8826      8828      8827      8826      8829
      8828      8826      8829      8826      8829      8830      8826      8829      8831
      8826      8829      8832      8830      8829      8831      8830      8829      8832
      8831      8829      8832      8834      8833      8837      8834      8833      8841
      8834      8833      8845      8837      8833      8841      8837      8833      8845
      8841      8833      8845      8833      8834      8835      8833      8834      8836
      8833      8834      8849      8835      8834      8836      8835      8834      8849
      8836      8834      8849      8833      8837      8838      8833      8837      8839
      8833      8837      8840      8838      8837      8839      8838      8837      8840
      8839      8837      8840      8833      8841      8842      8833      8841      8843
      8833      8841      8844      8842      8841      8843      8842      8841      8844
      8843      8841      8844      8833      8845      8846      8833      8845      8847
      8833      8845      8848      8846      8845      8847      8846      8845      8848
      8847      8845      8848      8834      8849      8850      8834      8849      8851
      8834      8849      8855      8850      8849      8851      8850      8849      8855
      8851      8849      8855      8853      8852      8854      8853      8852      8855
      8853      8852      8856      8854      8852      8855      8854      8852      8856
      8855      8852      8856      8849      8855      8852      8852      8856      8857
      8856      8857      8858      8856      8857      8859      8856      8857      8860
      8858      8857      8859      8858      8857      8860      8859      8857      8860
      8857      8860      8861      8857      8860      8862      8857      8860      8868
      8861      8860      8862      8861      8860      8868      8862      8860      8868
      8860      8862      8863      8862      8863      8864      8862      8863      8865
      8864      8863      8865      8863      8865      8866      8863      8865      8867
      8863      8865      8877      8866      8865      8867      8866      8865      8877
      8867      8865      8877      8860      8868      8869      8860      8868      8870
      8860      8868      8871      8869      8868      8870      8869      8868      8871
      8870      8868      8871      8868      8871      8872      8871      8872      8873
      8871      8872      8874      8873      8872      8874      8872      8874      8875
      8872      8874      8876      8872      8874      8924      8875      8874      8876
      8875      8874      8924      8876      8874      8924      8865      8877      8878
      8865      8877      8879      8865      8877      8880      8878      8877      8879
      8878      8877      8880      8879      8877      8880      8877      8880      8881
      8877      8880      8882      8877      8880      8883      8881      8880      8882
      8881      8880      8883      8882      8880      8883      8880      8883      8884
      8880      8883      8885      8880      8883      8886      8884      8883      8885
      8884      8883      8886      8885      8883      8886      8883      8886      8887
      8883      8886      8888      8883      8886      8889      8887      8886      8888
      8887      8886      8889      8888      8886      8889      8886      8889      8890
      8886      8889      8891      8886      8889      8892      8890      8889      8891
      8890      8889      8892      8891      8889      8892      8889      8892      8893
      8889      8892      8894      8889      8892      8895      8893      8892      8894
      8893      8892      8895      8894      8892      8895      8892      8895      8896
      8892      8895      8897      8896      8895      8897      8895      8897      8898
      8895      8897      8899      8898      8897      8899      8897      8899      8900
      8897      8899      8901      8897      8899      8902      8900      8899      8901
      8900      8899      8902      8901      8899      8902      8899      8902      8903
      8899      8902      8904      8899      8902      8905      8903      8902      8904
      8903      8902      8905      8904      8902      8905      8902      8905      8906
      8902      8905      8907      8902      8905      8908      8906      8905      8907
      8906      8905      8908      8907      8905      8908      8905      8908      8909
      8905      8908      8910      8905      8908      8911      8909      8908      8910
      8909      8908      8911      8910      8908      8911      8908      8911      8912
      8908      8911      8913      8908      8911      8914      8912      8911      8913
      8912      8911      8914      8913      8911      8914      8911      8914      8915
      8911      8914      8916      8911      8914      8917      8915      8914      8916
      8915      8914      8917      8916      8914      8917      8914      8917      8918
      8914      8917      8919      8914      8917      8920      8918      8917      8919
      8918      8917      8920      8919      8917      8920      8917      8920      8921
      8917      8920      8922      8917      8920      8923      8921      8920      8922
      8921      8920      8923      8922      8920      8923      8874      8924      8925
      8874      8924      8926      8874      8924      8927      8925      8924      8926
      8925      8924      8927      8926      8924      8927      8924      8927      8928
      8924      8927      8929      8924      8927      8930      8928      8927      8929
      8928      8927      8930      8929      8927      8930      8927      8930      8931
      8927      8930      8932      8927      8930      8933      8931      8930      8932
      8931      8930      8933      8932      8930      8933      8930      8933      8934
      8930      8933      8935      8930      8933      8936      8934      8933      8935
      8934      8933      8936      8935      8933      8936      8933      8936      8937
      8933      8936      8938      8933      8936      8939      8937      8936      8938
      8937      8936      8939      8938      8936      8939      8936      8939      8940
      8936      8939      8941      8936      8939      8942      8940      8939      8941
      8940      8939      8942      8941      8939      8942      8939      8942      8943
      8939      8942      8944      8943      8942      8944      8942      8944      8945
      8942      8944      8946      8945      8944      8946      8944      8946      8947
      8944      8946      8948      8944      8946      8949      8947      8946      8948
      8947      8946      8949      8948      8946      8949      8946      8949      8950
      8946      8949      8951      8946      8949      8952      8950      8949      8951
      8950      8949      8952      8951      8949      8952      8949      8952      8953
      8949      8952      8954      8949      8952      8955      8953      8952      8954
      8953      8952      8955      8954      8952      8955      8952      8955      8956
      8952      8955      8957      8952      8955      8958      8956      8955      8957
      8956      8955      8958      8957      8955      8958      8955      8958      8959
      8955      8958      8960      8955      8958      8961      8959      8958      8960
      8959      8958      8961      8960      8958      8961      8958      8961      8962
      8958      8961      8963      8958      8961      8964      8962      8961      8963
      8962      8961      8964      8963      8961      8964      8961      8964      8965
      8961      8964      8966      8961      8964      8967      8965      8964      8966
      8965      8964      8967      8966      8964      8967      8964      8967      8968
      8964      8967      8969      8964      8967      8970      8968      8967      8969
      8968      8967      8970      8969      8967      8970      8972      8971      8975
      8972      8971      8979      8972      8971      8983      8975      8971      8979
      8975      8971      8983      8979      8971      8983      8971      8972      8973
      8971      8972      8974      8971      8972      8987      8973      8972      8974
      8973      8972      8987      8974      8972      8987      8971      8975      8976
      8971      8975      8977      8971      8975      8978      8976      8975      8977
      8976      8975      8978      8977      8975      8978      8971      8979      8980
      8971      8979      8981      8971      8979      8982      8980      8979      8981
      8980      8979      8982      8981      8979      8982      8971      8983      8984
      8971      8983      8985      8971      8983      8986      8984      8983      8985
      8984      8983      8986      8985      8983      8986      8972      8987      8988
      8972      8987      8989      8972      8987      8993      8988      8987      8989
      8988      8987      8993      8989      8987      8993      8991      8990      8992
      8991      8990      8993      8991      8990      8994      8992      8990      8993
      8992      8990      8994      8993      8990      8994      8987      8993      8990
      8990      8994      8995      8994      8995      8996      8994      8995      8997
      8994      8995      8998      8996      8995      8997      8996      8995      8998
      8997      8995      8998      8995      8998      8999      8995      8998      9000
      8995      8998      9006      8999      8998      9000      8999      8998      9006
      9000      8998      9006      8998      9000      9001      9000      9001      9002
      9000      9001      9003      9002      9001      9003      9001      9003      9004
      9001      9003      9005      9001      9003      9015      9004      9003      9005
      9004      9003      9015      9005      9003      9015      8998      9006      9007
      8998      9006      9008      8998      9006      9009      9007      9006      9008
      9007      9006      9009      9008      9006      9009      9006      9009      9010
      9009      9010      9011      9009      9010      9012      9011      9010      9012
      9010      9012      9013      9010      9012      9014      9010      9012      9062
      9013      9012      9014      9013      9012      9062      9014      9012      9062
      9003      9015      9016      9003      9015      9017      9003      9015      9018
      9016      9015      9017      9016      9015      9018      9017      9015      9018
      9015      9018      9019      9015      9018      9020      9015      9018      9021
      9019      9018      9020      9019      9018      9021      9020      9018      9021
      9018      9021      9022      9018      9021      9023      9018      9021      9024
      9022      9021      9023      9022      9021      9024      9023      9021      9024
      9021      9024      9025      9021      9024      9026      9021      9024      9027
      9025      9024      9026      9025      9024      9027      9026      9024      9027
      9024      9027      9028      9024      9027      9029      9024      9027      9030
      9028      9027      9029      9028      9027      9030      9029      9027      9030
      9027      9030      9031      9027      9030      9032      9027      9030      9033
      9031      9030      9032      9031      9030      9033      9032      9030      9033
      9030      9033      9034      9030      9033      9035      9034      9033      9035
      9033      9035      9036      9033      9035      9037      9036      9035      9037
      9035      9037      9038      9035      9037      9039      9035      9037      9040
      9038      9037      9039      9038      9037      9040      9039      9037      9040
      9037      9040      9041      9037      9040      9042      9037      9040      9043
      9041      9040      9042      9041      9040      9043      9042      9040      9043
      9040      9043      9044      9040      9043      9045      9040      9043      9046
      9044      9043      9045      9044      9043      9046      9045      9043      9046
      9043      9046      9047      9043      9046      9048      9043      9046      9049
      9047      9046      9048      9047      9046      9049      9048      9046      9049
      9046      9049      9050      9046      9049      9051      9046      9049      9052
      9050      9049      9051      9050      9049      9052      9051      9049      9052
      9049      9052      9053      9049      9052      9054      9049      9052      9055
      9053      9052      9054      9053      9052      9055      9054      9052      9055
      9052      9055      9056      9052      9055      9057      9052      9055      9058
      9056      9055      9057      9056      9055      9058      9057      9055      9058
      9055      9058      9059      9055      9058      9060      9055      9058      9061
      9059      9058      9060      9059      9058      9061      9060      9058      9061
      9012      9062      9063      9012      9062      9064      9012      9062      9065
      9063      9062      9064      9063      9062      9065      9064      9062      9065
      9062      9065      9066      9062      9065      9067      9062      9065      9068
      9066      9065      9067      9066      9065      9068      9067      9065      9068
      9065      9068      9069      9065      9068      9070      9065      9068      9071
      9069      9068      9070      9069      9068      9071      9070      9068      9071
      9068      9071      9072      9068      9071      9073      9068      9071      9074
      9072      9071      9073      9072      9071      9074      9073      9071      9074
      9071      9074      9075      9071      9074      9076      9071      9074      9077
      9075      9074      9076      9075      9074      9077      9076      9074      9077
      9074      9077      9078      9074      9077      9079      9074      9077      9080
      9078      9077      9079      9078      9077      9080      9079      9077      9080
      9077      9080      9081      9077      9080      9082      9081      9080      9082
      9080      9082      9083      9080      9082      9084      9083      9082      9084
      9082      9084      9085      9082      9084      9086      9082      9084      9087
      9085      9084      9086      9085      9084      9087      9086      9084      9087
      9084      9087      9088      9084      9087      9089      9084      9087      9090
      9088      9087      9089      9088      9087      9090      9089      9087      9090
      9087      9090      9091      9087      9090      9092      9087      9090      9093
      9091      9090      9092      9091      9090      9093      9092      9090      9093
      9090      9093      9094      9090      9093      9095      9090      9093      9096
      9094      9093      9095      9094      9093      9096      9095      9093      9096
      9093      9096      9097      9093      9096      9098      9093      9096      9099
      9097      9096      9098      9097      9096      9099      9098      9096      9099
      9096      9099      9100      9096      9099      9101      9096      9099      9102
      9100      9099      9101      9100      9099      9102      9101      9099      9102
      9099      9102      9103      9099      9102      9104      9099      9102      9105
      9103      9102      9104      9103      9102      9105      9104      9102      9105
      9102      9105      9106      9102      9105      9107      9102      9105      9108
      9106      9105      9107      9106      9105      9108      9107      9105      9108
      9110      9109      9113      9110      9109      9117      9110      9109      9121
      9113      9109      9117      9113      9109      9121      9117      9109      9121
      9109      9110      9111      9109      9110      9112      9109      9110      9125
      9111      9110      9112      9111      9110      9125      9112      9110      9125
      9109      9113      9114      9109      9113      9115      9109      9113      9116
      9114      9113      9115      9114      9113      9116      9115      9113      9116
      9109      9117      9118      9109      9117      9119      9109      9117      9120
      9118      9117      9119      9118      9117      9120      9119      9117      9120
      9109      9121      9122      9109      9121      9123      9109      9121      9124
      9122      9121      9123      9122      9121      9124      9123      9121      9124
      9110      9125      9126      9110      9125      9127      9110      9125      9131
      9126      9125      9127      9126      9125      9131      9127      9125      9131
      9129      9128      9130      9129      9128      9131      9129      9128      9132
      9130      9128      9131      9130      9128      9132      9131      9128      9132
      9125      9131      9128      9128      9132      9133      9132      9133      9134
      9132      9133      9135      9132      9133      9136      9134      9133      9135
      9134      9133      9136      9135      9133      9136      9133      9136      9137
      9133      9136      9138      9133      9136      9144      9137      9136      9138
      9137      9136      9144      9138      9136      9144      9136      9138      9139
      9138      9139      9140      9138      9139      9141      9140      9139      9141
      9139      9141      9142      9139      9141      9143      9139      9141      9153
      9142      9141      9143      9142      9141      9153      9143      9141      9153
      9136      9144      9145      9136      9144      9146      9136      9144      9147
      9145      9144      9146      9145      9144      9147      9146      9144      9147
      9144      9147      9148      9147      9148      9149      9147      9148      9150
      9149      9148      9150      9148      9150      9151      9148      9150      9152
      9148      9150      9200      9151      9150      9152      9151      9150      9200
      9152      9150      9200      9141      9153      9154      9141      9153      9155
      9141      9153      9156      9154      9153      9155      9154      9153      9156
      9155      9153      9156      9153      9156      9157      9153      9156      9158
      9153      9156      9159      9157      9156      9158      9157      9156      9159
      9158      9156      9159      9156      9159      9160      9156      9159      9161
      9156      9159      9162      9160      9159      9161      9160      9159      9162
      9161      9159      9162      9159      9162      9163      9159      9162      9164
      9159      9162      9165      9163      9162      9164      9163      9162      9165
      9164      9162      9165      9162      9165      9166      9162      9165      9167
      9162      9165      9168      9166      9165      9167      9166      9165      9168
      9167      9165      9168      9165      9168      9169      9165      9168      9170
      9165      9168      9171      9169      9168      9170      9169      9168      9171
      9170      9168      9171      9168      9171      9172      9168      9171      9173
      9172      9171      9173      9171      9173      9174      9171      9173      9175
      9174      9173      9175      9173      9175      9176      9173      9175      9177
      9173      9175      9178      9176      9175      9177      9176      9175      9178
      9177      9175      9178      9175      9178      9179      9175      9178      9180
      9175      9178      9181      9179      9178      9180      9179      9178      9181
      9180      9178      9181      9178      9181      9182      9178      9181      9183
      9178      9181      9184      9182      9181      9183      9182      9181      9184
      9183      9181      9184      9181      9184      9185      9181      9184      9186
      9181      9184      9187      9185      9184      9186      9185      9184      9187
      9186      9184      9187      9184      9187      9188      9184      9187      9189
      9184      9187      9190      9188      9187      9189      9188      9187      9190
      9189      9187      9190      9187      9190      9191      9187      9190      9192
      9187      9190      9193      9191      9190      9192      9191      9190      9193
      9192      9190      9193      9190      9193      9194      9190      9193      9195
      9190      9193      9196      9194      9193      9195      9194      9193      9196
      9195      9193      9196      9193      9196      9197      9193      9196      9198
      9193      9196      9199      9197      9196      9198      9197      9196      9199
      9198      9196      9199      9150      9200      9201      9150      9200      9202
      9150      9200      9203      9201      9200      9202      9201      9200      9203
      9202      9200      9203      9200      9203      9204      9200      9203      9205
      9200      9203      9206      9204      9203      9205      9204      9203      9206
      9205      9203      9206      9203      9206      9207      9203      9206      9208
      9203      9206      9209      9207      9206      9208      9207      9206      9209
      9208      9206      9209      9206      9209      9210      9206      9209      9211
      9206      9209      9212      9210      9209      9211      9210      9209      9212
      9211      9209      9212      9209      9212      9213      9209      9212      9214
      9209      9212      9215      9213      9212      9214      9213      9212      9215
      9214      9212      9215      9212      9215      9216      9212      9215      9217
      9212      9215      9218      9216      9215      9217      9216      9215      9218
      9217      9215      9218      9215      9218      9219      9215      9218      9220
      9219      9218      9220      9218      9220      9221      9218      9220      9222
      9221      9220      9222      9220      9222      9223      9220      9222      9224
      9220      9222      9225      9223      9222      9224      9223      9222      9225
      9224      9222      9225      9222      9225      9226      9222      9225      9227
      9222      9225      9228      9226      9225      9227      9226      9225      9228
      9227      9225      9228      9225      9228      9229      9225      9228      9230
      9225      9228      9231      9229      9228      9230      9229      9228      9231
      9230      9228      9231      9228      9231      9232      9228      9231      9233
      9228      9231      9234      9232      9231      9233      9232      9231      9234
      9233      9231      9234      9231      9234      9235      9231      9234      9236
      9231      9234      9237      9235      9234      9236      9235      9234      9237
      9236      9234      9237      9234      9237      9238      9234      9237      9239
      9234      9237      9240      9238      9237      9239      9238      9237      9240
      9239      9237      9240      9237      9240      9241      9237      9240      9242
      9237      9240      9243      9241      9240      9242      9241      9240      9243
      9242      9240      9243      9240      9243      9244      9240      9243      9245
      9240      9243      9246      9244      9243      9245      9244      9243      9246
      9245      9243      9246      9248      9247      9251      9248      9247      9255
      9248      9247      9259      9251      9247      9255      9251      9247      9259
      9255      9247      9259      9247      9248      9249      9247      9248      9250
      9247      9248      9263      9249      9248      9250      9249      9248      9263
      9250      9248      9263      9247      9251      9252      9247      9251      9253
      9247      9251      9254      9252      9251      9253      9252      9251      9254
      9253      9251      9254      9247      9255      9256      9247      9255      9257
      9247      9255      9258      9256      9255      9257      9256      9255      9258
      9257      9255      9258      9247      9259      9260      9247      9259      9261
      9247      9259      9262      9260      9259      9261      9260      9259      9262
      9261      9259      9262      9248      9263      9264      9248      9263      9265
      9248      9263      9269      9264      9263      9265      9264      9263      9269
      9265      9263      9269      9267      9266      9268      9267      9266      9269
      9267      9266      9270      9268      9266      9269      9268      9266      9270
      9269      9266      9270      9263      9269      9266      9266      9270      9271
      9270      9271      9272      9270      9271      9273      9270      9271      9274
      9272      9271      9273      9272      9271      9274      9273      9271      9274
      9271      9274      9275      9271      9274      9276      9271      9274      9282
      9275      9274      9276      9275      9274      9282      9276      9274      9282
      9274      9276      9277      9276      9277      9278      9276      9277      9279
      9278      9277      9279      9277      9279      9280      9277      9279      9281
      9277      9279      9291      9280      9279      9281      9280      9279      9291
      9281      9279      9291      9274      9282      9283      9274      9282      9284
      9274      9282      9285      9283      9282      9284      9283      9282      9285
      9284      9282      9285      9282      9285      9286      9285      9286      9287
      9285      9286      9288      9287      9286      9288      9286      9288      9289
      9286      9288      9290      9286      9288      9338      9289      9288      9290
      9289      9288      9338      9290      9288      9338      9279      9291      9292
      9279      9291      9293      9279      9291      9294      9292      9291      9293
      9292      9291      9294      9293      9291      9294      9291      9294      9295
      9291      9294      9296      9291      9294      9297      9295      9294      9296
      9295      9294      9297      9296      9294      9297      9294      9297      9298
      9294      9297      9299      9294      9297      9300      9298      9297      9299
      9298      9297      9300      9299      9297      9300      9297      9300      9301
      9297      9300      9302      9297      9300      9303      9301      9300      9302
      9301      9300      9303      9302      9300      9303      9300      9303      9304
      9300      9303      9305      9300      9303      9306      9304      9303      9305
      9304      9303      9306      9305      9303      9306      9303      9306      9307
      9303      9306      9308      9303      9306      9309      9307      9306      9308
      9307      9306      9309      9308      9306      9309      9306      9309      9310
      9306      9309      9311      9310      9309      9311      9309      9311      9312
      9309      9311      9313      9312      9311      9313      9311      9313      9314
      9311      9313      9315      9311      9313      9316      9314      9313      9315
      9314      9313      9316      9315      9313      9316      9313      9316      9317
      9313      9316      9318      9313      9316      9319      9317      9316      9318
      9317      9316      9319      9318      9316      9319      9316      9319      9320
      9316      9319      9321      9316      9319      9322      9320      9319      9321
      9320      9319      9322      9321      9319      9322      9319      9322      9323
      9319      9322      9324      9319      9322      9325      9323      9322      9324
      9323      9322      9325      9324      9322      9325      9322      9325      9326
      9322      9325      9327      9322      9325      9328      9326      9325      9327
      9326      9325      9328      9327      9325      9328      9325      9328      9329
      9325      9328      9330      9325      9328      9331      9329      9328      9330
      9329      9328      9331      9330      9328      9331      9328      9331      9332
      9328      9331      9333      9328      9331      9334      9332      9331      9333
      9332      9331      9334      9333      9331      9334      9331      9334      9335
      9331      9334      9336      9331      9334      9337      9335      9334      9336
      9335      9334      9337      9336      9334      9337      9288      9338      9339
      9288      9338      9340      9288      9338      9341      9339      9338      9340
      9339      9338      9341      9340      9338      9341      9338      9341      9342
      9338      9341      9343      9338      9341      9344      9342      9341      9343
      9342      9341      9344      9343      9341      9344      9341      9344      9345
      9341      9344      9346      9341      9344      9347      9345      9344      9346
      9345      9344      9347      9346      9344      9347      9344      9347      9348
      9344      9347      9349      9344      9347      9350      9348      9347      9349
      9348      9347      9350      9349      9347      9350      9347      9350      9351
      9347      9350      9352      9347      9350      9353      9351      9350      9352
      9351      9350      9353      9352      9350      9353      9350      9353      9354
      9350      9353      9355      9350      9353      9356      9354      9353      9355
      9354      9353      9356      9355      9353      9356      9353      9356      9357
      9353      9356      9358      9357      9356      9358      9356      9358      9359
      9356      9358      9360      9359      9358      9360      9358      9360      9361
      9358      9360      9362      9358      9360      9363      9361      9360      9362
      9361      9360      9363      9362      9360      9363      9360      9363      9364
      9360      9363      9365      9360      9363      9366      9364      9363      9365
      9364      9363      9366      9365      9363      9366      9363      9366      9367
      9363      9366      9368      9363      9366      9369      9367      9366      9368
      9367      9366      9369      9368      9366      9369      9366      9369      9370
      9366      9369      9371      9366      9369      9372      9370      9369      9371
      9370      9369      9372      9371      9369      9372      9369      9372      9373
      9369      9372      9374      9369      9372      9375      9373      9372      9374
      9373      9372      9375      9374      9372      9375      9372      9375      9376
      9372      9375      9377      9372      9375      9378      9376      9375      9377
      9376      9375      9378      9377      9375      9378      9375      9378      9379
      9375      9378      9380      9375      9378      9381      9379      9378      9380
      9379      9378      9381      9380      9378      9381      9378      9381      9382
      9378      9381      9383      9378      9381      9384      9382      9381      9383
      9382      9381      9384      9383      9381      9384      9386      9385      9389
      9386      9385      9393      9386      9385      9397      9389      9385      9393
      9389      9385      9397      9393      9385      9397      9385      9386      9387
      9385      9386      9388      9385      9386      9401      9387      9386      9388
      9387      9386      9401      9388      9386      9401      9385      9389      9390
      9385      9389      9391      9385      9389      9392      9390      9389      9391
      9390      9389      9392      9391      9389      9392      9385      9393      9394
      9385      9393      9395      9385      9393      9396      9394      9393      9395
      9394      9393      9396      9395      9393      9396      9385      9397      9398
      9385      9397      9399      9385      9397      9400      9398      9397      9399
      9398      9397      9400      9399      9397      9400      9386      9401      9402
      9386      9401      9403      9386      9401      9407      9402      9401      9403
      9402      9401      9407      9403      9401      9407      9405      9404      9406
      9405      9404      9407      9405      9404      9408      9406      9404      9407
      9406      9404      9408      9407      9404      9408      9401      9407      9404
      9404      9408      9409      9408      9409      9410      9408      9409      9411
      9408      9409      9412      9410      9409      9411      9410      9409      9412
      9411      9409      9412      9409      9412      9413      9409      9412      9414
      9409      9412      9420      9413      9412      9414      9413      9412      9420
      9414      9412      9420      9412      9414      9415      9414      9415      9416
      9414      9415      9417      9416      9415      9417      9415      9417      9418
      9415      9417      9419      9415      9417      9429      9418      9417      9419
      9418      9417      9429      9419      9417      9429      9412      9420      9421
      9412      9420      9422      9412      9420      9423      9421      9420      9422
      9421      9420      9423      9422      9420      9423      9420      9423      9424
      9423      9424      9425      9423      9424      9426      9425      9424      9426
      9424      9426      9427      9424      9426      9428      9424      9426      9476
      9427      9426      9428      9427      9426      9476      9428      9426      9476
      9417      9429      9430      9417      9429      9431      9417      9429      9432
      9430      9429      9431      9430      9429      9432      9431      9429      9432
      9429      9432      9433      9429      9432      9434      9429      9432      9435
      9433      9432      9434      9433      9432      9435      9434      9432      9435
      9432      9435      9436      9432      9435      9437      9432      9435      9438
      9436      9435      9437      9436      9435      9438      9437      9435      9438
      9435      9438      9439      9435      9438      9440      9435      9438      9441
      9439      9438      9440      9439      9438      9441      9440      9438      9441
      9438      9441      9442      9438      9441      9443      9438      9441      9444
      9442      9441      9443      9442      9441      9444      9443      9441      9444
      9441      9444      9445      9441      9444      9446      9441      9444      9447
      9445      9444      9446      9445      9444      9447      9446      9444      9447
      9444      9447      9448      9444      9447      9449      9448      9447      9449
      9447      9449      9450      9447      9449      9451      9450      9449      9451
      9449      9451      9452      9449      9451      9453      9449      9451      9454
      9452      9451      9453      9452      9451      9454      9453      9451      9454
      9451      9454      9455      9451      9454      9456      9451      9454      9457
      9455      9454      9456      9455      9454      9457      9456      9454      9457
      9454      9457      9458      9454      9457      9459      9454      9457      9460
      9458      9457      9459      9458      9457      9460      9459      9457      9460
      9457      9460      9461      9457      9460      9462      9457      9460      9463
      9461      9460      9462      9461      9460      9463      9462      9460      9463
      9460      9463      9464      9460      9463      9465      9460      9463      9466
      9464      9463      9465      9464      9463      9466      9465      9463      9466
      9463      9466      9467      9463      9466      9468      9463      9466      9469
      9467      9466      9468      9467      9466      9469      9468      9466      9469
      9466      9469      9470      9466      9469      9471      9466      9469      9472
      9470      9469      9471      9470      9469      9472      9471      9469      9472
      9469      9472      9473      9469      9472      9474      9469      9472      9475
      9473      9472      9474      9473      9472      9475      9474      9472      9475
      9426      9476      9477      9426      9476      9478      9426      9476      9479
      9477      9476      9478      9477      9476      9479      9478      9476      9479
      9476      9479      9480      9476      9479      9481      9476      9479      9482
      9480      9479      9481      9480      9479      9482      9481      9479      9482
      9479      9482      9483      9479      9482      9484      9479      9482      9485
      9483      9482      9484      9483      9482      9485      9484      9482      9485
      9482      9485      9486      9482      9485      9487      9482      9485      9488
      9486      9485      9487      9486      9485      9488      9487      9485      9488
      9485      9488      9489      9485      9488      9490      9485      9488      9491
      9489      9488      9490      9489      9488      9491      9490      9488      9491
      9488      9491      9492      9488      9491      9493      9488      9491      9494
      9492      9491      9493      9492      9491      9494      9493      9491      9494
      9491      9494      9495      9491      9494      9496      9495      9494      9496
      9494      9496      9497      9494      9496      9498      9497      9496      9498
      9496      9498      9499      9496      9498      9500      9496      9498      9501
      9499      9498      9500      9499      9498      9501      9500      9498      9501
      9498      9501      9502      9498      9501      9503      9498      9501      9504
      9502      9501      9503      9502      9501      9504      9503      9501      9504
      9501      9504      9505      9501      9504      9506      9501      9504      9507
      9505      9504      9506      9505      9504      9507      9506      9504      9507
      9504      9507      9508      9504      9507      9509      9504      9507      9510
      9508      9507      9509      9508      9507      9510      9509      9507      9510
      9507      9510      9511      9507      9510      9512      9507      9510      9513
      9511      9510      9512      9511      9510      9513      9512      9510      9513
      9510      9513      9514      9510      9513      9515      9510      9513      9516
      9514      9513      9515      9514      9513      9516      9515      9513      9516
      9513      9516      9517      9513      9516      9518      9513      9516      9519
      9517      9516      9518      9517      9516      9519      9518      9516      9519
      9516      9519      9520      9516      9519      9521      9516      9519      9522
      9520      9519      9521      9520      9519      9522      9521      9519      9522
      9524      9523      9527      9524      9523      9531      9524      9523      9535
      9527      9523      9531      9527      9523      9535      9531      9523      9535
      9523      9524      9525      9523      9524      9526      9523      9524      9539
      9525      9524      9526      9525      9524      9539      9526      9524      9539
      9523      9527      9528      9523      9527      9529      9523      9527      9530
      9528      9527      9529      9528      9527      9530      9529      9527      9530
      9523      9531      9532      9523      9531      9533      9523      9531      9534
      9532      9531      9533      9532      9531      9534      9533      9531      9534
      9523      9535      9536      9523      9535      9537      9523      9535      9538
      9536      9535      9537      9536      9535      9538      9537      9535      9538
      9524      9539      9540      9524      9539      9541      9524      9539      9545
      9540      9539      9541      9540      9539      9545      9541      9539      9545
      9543      9542      9544      9543      9542      9545      9543      9542      9546
      9544      9542      9545      9544      9542      9546      9545      9542      9546
      9539      9545      9542      9542      9546      9547      9546      9547      9548
      9546      9547      9549      9546      9547      9550      9548      9547      9549
      9548      9547      9550      9549      9547      9550      9547      9550      9551
      9547      9550      9552      9547      9550      9558      9551      9550      9552
      9551      9550      9558      9552      9550      9558      9550      9552      9553
      9552      9553      9554      9552      9553      9555      9554      9553      9555
      9553      9555      9556      9553      9555      9557      9553      9555      9567
      9556      9555      9557      9556      9555      9567      9557      9555      9567
      9550      9558      9559      9550      9558      9560      9550      9558      9561
      9559      9558      9560      9559      9558      9561      9560      9558      9561
      9558      9561      9562      9561      9562      9563      9561      9562      9564
      9563      9562      9564      9562      9564      9565      9562      9564      9566
      9562      9564      9614      9565      9564      9566      9565      9564      9614
      9566      9564      9614      9555      9567      9568      9555      9567      9569
      9555      9567      9570      9568      9567      9569      9568      9567      9570
      9569      9567      9570      9567      9570      9571      9567      9570      9572
      9567      9570      9573      9571      9570      9572      9571      9570      9573
      9572      9570      9573      9570      9573      9574      9570      9573      9575
      9570      9573      9576      9574      9573      9575      9574      9573      9576
      9575      9573      9576      9573      9576      9577      9573      9576      9578
      9573      9576      9579      9577      9576      9578      9577      9576      9579
      9578      9576      9579      9576      9579      9580      9576      9579      9581
      9576      9579      9582      9580      9579      9581      9580      9579      9582
      9581      9579      9582      9579      9582      9583      9579      9582      9584
      9579      9582      9585      9583      9582      9584      9583      9582      9585
      9584      9582      9585      9582      9585      9586      9582      9585      9587
      9586      9585      9587      9585      9587      9588      9585      9587      9589
      9588      9587      9589      9587      9589      9590      9587      9589      9591
      9587      9589      9592      9590      9589      9591      9590      9589      9592
      9591      9589      9592      9589      9592      9593      9589      9592      9594
      9589      9592      9595      9593      9592      9594      9593      9592      9595
      9594      9592      9595      9592      9595      9596      9592      9595      9597
      9592      9595      9598      9596      9595      9597      9596      9595      9598
      9597      9595      9598      9595      9598      9599      9595      9598      9600
      9595      9598      9601      9599      9598      9600      9599      9598      9601
      9600      9598      9601      9598      9601      9602      9598      9601      9603
      9598      9601      9604      9602      9601      9603      9602      9601      9604
      9603      9601      9604      9601      9604      9605      9601      9604      9606
      9601      9604      9607      9605      9604      9606      9605      9604      9607
      9606      9604      9607      9604      9607      9608      9604      9607      9609
      9604      9607      9610      9608      9607      9609      9608      9607      9610
      9609      9607      9610      9607      9610      9611      9607      9610      9612
      9607      9610      9613      9611      9610      9612      9611      9610      9613
      9612      9610      9613      9564      9614      9615      9564      9614      9616
      9564      9614      9617      9615      9614      9616      9615      9614      9617
      9616      9614      9617      9614      9617      9618      9614      9617      9619
      9614      9617      9620      9618      9617      9619      9618      9617      9620
      9619      9617      9620      9617      9620      9621      9617      9620      9622
      9617      9620      9623      9621      9620      9622      9621      9620      9623
      9622      9620      9623      9620      9623      9624      9620      9623      9625
      9620      9623      9626      9624      9623      9625      9624      9623      9626
      9625      9623      9626      9623      9626      9627      9623      9626      9628
      9623      9626      9629      9627      9626      9628      9627      9626      9629
      9628      9626      9629      9626      9629      9630      9626      9629      9631
      9626      9629      9632      9630      9629      9631      9630      9629      9632
      9631      9629      9632      9629      9632      9633      9629      9632      9634
      9633      9632      9634      9632      9634      9635      9632      9634      9636
      9635      9634      9636      9634      9636      9637      9634      9636      9638
      9634      9636      9639      9637      9636      9638      9637      9636      9639
      9638      9636      9639      9636      9639      9640      9636      9639      9641
      9636      9639      9642      9640      9639      9641      9640      9639      9642
      9641      9639      9642      9639      9642      9643      9639      9642      9644
      9639      9642      9645      9643      9642      9644      9643      9642      9645
      9644      9642      9645      9642      9645      9646      9642      9645      9647
      9642      9645      9648      9646      9645      9647      9646      9645      9648
      9647      9645      9648      9645      9648      9649      9645      9648      9650
      9645      9648      9651      9649      9648      9650      9649      9648      9651
      9650      9648      9651      9648      9651      9652      9648      9651      9653
      9648      9651      9654      9652      9651      9653      9652      9651      9654
      9653      9651      9654      9651      9654      9655      9651      9654      9656
      9651      9654      9657      9655      9654      9656      9655      9654      9657
      9656      9654      9657      9654      9657      9658      9654      9657      9659
      9654      9657      9660      9658      9657      9659      9658      9657      9660
      9659      9657      9660      9662      9661      9665      9662      9661      9669
      9662      9661      9673      9665      9661      9669      9665      9661      9673
      9669      9661      9673      9661      9662      9663      9661      9662      9664
      9661      9662      9677      9663      9662      9664      9663      9662      9677
      9664      9662      9677      9661      9665      9666      9661      9665      9667
      9661      9665      9668      9666      9665      9667      9666      9665      9668
      9667      9665      9668      9661      9669      9670      9661      9669      9671
      9661      9669      9672      9670      9669      9671      9670      9669      9672
      9671      9669      9672      9661      9673      9674      9661      9673      9675
      9661      9673      9676      9674      9673      9675      9674      9673      9676
      9675      9673      9676      9662      9677      9678      9662      9677      9679
      9662      9677      9683      9678      9677      9679      9678      9677      9683
      9679      9677      9683      9681      9680      9682      9681      9680      9683
      9681      9680      9684      9682      9680      9683      9682      9680      9684
      9683      9680      9684      9677      9683      9680      9680      9684      9685
      9684      9685      9686      9684      9685      9687      9684      9685      9688
      9686      9685      9687      9686      9685      9688      9687      9685      9688
      9685      9688      9689      9685      9688      9690      9685      9688      9696
      9689      9688      9690      9689      9688      9696      9690      9688      9696
      9688      9690      9691      9690      9691      9692      9690      9691      9693
      9692      9691      9693      9691      9693      9694      9691      9693      9695
      9691      9693      9705      9694      9693      9695      9694      9693      9705
      9695      9693      9705      9688      9696      9697      9688      9696      9698
      9688      9696      9699      9697      9696      9698      9697      9696      9699
      9698      9696      9699      9696      9699      9700      9699      9700      9701
      9699      9700      9702      9701      9700      9702      9700      9702      9703
      9700      9702      9704      9700      9702      9752      9703      9702      9704
      9703      9702      9752      9704      9702      9752      9693      9705      9706
      9693      9705      9707      9693      9705      9708      9706      9705      9707
      9706      9705      9708      9707      9705      9708      9705      9708      9709
      9705      9708      9710      9705      9708      9711      9709      9708      9710
      9709      9708      9711      9710      9708      9711      9708      9711      9712
      9708      9711      9713      9708      9711      9714      9712      9711      9713
      9712      9711      9714      9713      9711      9714      9711      9714      9715
      9711      9714      9716      9711      9714      9717      9715      9714      9716
      9715      9714      9717      9716      9714      9717      9714      9717      9718
      9714      9717      9719      9714      9717      9720      9718      9717      9719
      9718      9717      9720      9719      9717      9720      9717      9720      9721
      9717      9720      9722      9717      9720      9723      9721      9720      9722
      9721      9720      9723      9722      9720      9723      9720      9723      9724
      9720      9723      9725      9724      9723      9725      9723      9725      9726
      9723      9725      9727      9726      9725      9727      9725      9727      9728
      9725      9727      9729      9725      9727      9730      9728      9727      9729
      9728      9727      9730      9729      9727      9730      9727      9730      9731
      9727      9730      9732      9727      9730      9733      9731      9730      9732
      9731      9730      9733      9732      9730      9733      9730      9733      9734
      9730      9733      9735      9730      9733      9736      9734      9733      9735
      9734      9733      9736      9735      9733      9736      9733      9736      9737
      9733      9736      9738      9733      9736      9739      9737      9736      9738
      9737      9736      9739      9738      9736      9739      9736      9739      9740
      9736      9739      9741      9736      9739      9742      9740      9739      9741
      9740      9739      9742      9741      9739      9742      9739      9742      9743
      9739      9742      9744      9739      9742      9745      9743      9742      9744
      9743      9742      9745      9744      9742      9745      9742      9745      9746
      9742      9745      9747      9742      9745      9748      9746      9745      9747
      9746      9745      9748      9747      9745      9748      9745      9748      9749
      9745      9748      9750      9745      9748      9751      9749      9748      9750
      9749      9748      9751      9750      9748      9751      9702      9752      9753
      9702      9752      9754      9702      9752      9755      9753      9752      9754
      9753      9752      9755      9754      9752      9755      9752      9755      9756
      9752      9755      9757      9752      9755      9758      9756      9755      9757
      9756      9755      9758      9757      9755      9758      9755      9758      9759
      9755      9758      9760      9755      9758      9761      9759      9758      9760
      9759      9758      9761      9760      9758      9761      9758      9761      9762
      9758      9761      9763      9758      9761      9764      9762      9761      9763
      9762      9761      9764      9763      9761      9764      9761      9764      9765
      9761      9764      9766      9761      9764      9767      9765      9764      9766
      9765      9764      9767      9766      9764      9767      9764      9767      9768
      9764      9767      9769      9764      9767      9770      9768      9767      9769
      9768      9767      9770      9769      9767      9770      9767      9770      9771
      9767      9770      9772      9771      9770      9772      9770      9772      9773
      9770      9772      9774      9773      9772      9774      9772      9774      9775
      9772      9774      9776      9772      9774      9777      9775      9774      9776
      9775      9774      9777      9776      9774      9777      9774      9777      9778
      9774      9777      9779      9774      9777      9780      9778      9777      9779
      9778      9777      9780      9779      9777      9780      9777      9780      9781
      9777      9780      9782      9777      9780      9783      9781      9780      9782
      9781      9780      9783      9782      9780      9783      9780      9783      9784
      9780      9783      9785      9780      9783      9786      9784      9783      9785
      9784      9783      9786      9785      9783      9786      9783      9786      9787
      9783      9786      9788      9783      9786      9789      9787      9786      9788
      9787      9786      9789      9788      9786      9789      9786      9789      9790
      9786      9789      9791      9786      9789      9792      9790      9789      9791
      9790      9789      9792      9791      9789      9792      9789      9792      9793
      9789      9792      9794      9789      9792      9795      9793      9792      9794
      9793      9792      9795      9794      9792      9795      9792      9795      9796
      9792      9795      9797      9792      9795      9798      9796      9795      9797
      9796      9795      9798      9797      9795      9798      9800      9799      9803
      9800      9799      9807      9800      9799      9811      9803      9799      9807
      9803      9799      9811      9807      9799      9811      9799      9800      9801
      9799      9800      9802      9799      9800      9815      9801      9800      9802
      9801      9800      9815      9802      9800      9815      9799      9803      9804
      9799      9803      9805      9799      9803      9806      9804      9803      9805
      9804      9803      9806      9805      9803      9806      9799      9807      9808
      9799      9807      9809      9799      9807      9810      9808      9807      9809
      9808      9807      9810      9809      9807      9810      9799      9811      9812
      9799      9811      9813      9799      9811      9814      9812      9811      9813
      9812      9811      9814      9813      9811      9814      9800      9815      9816
      9800      9815      9817      9800      9815      9821      9816      9815      9817
      9816      9815      9821      9817      9815      9821      9819      9818      9820
      9819      9818      9821      9819      9818      9822      9820      9818      9821
      9820      9818      9822      9821      9818      9822      9815      9821      9818
      9818      9822      9823      9822      9823      9824      9822      9823      9825
      9822      9823      9826      9824      9823      9825      9824      9823      9826
      9825      9823      9826      9823      9826      9827      9823      9826      9828
      9823      9826      9834      9827      9826      9828      9827      9826      9834
      9828      9826      9834      9826      9828      9829      9828      9829      9830
      9828      9829      9831      9830      9829      9831      9829      9831      9832
      9829      9831      9833      9829      9831      9843      9832      9831      9833
      9832      9831      9843      9833      9831      9843      9826      9834      9835
      9826      9834      9836      9826      9834      9837      9835      9834      9836
      9835      9834      9837      9836      9834      9837      9834      9837      9838
      9837      9838      9839      9837      9838      9840      9839      9838      9840
      9838      9840      9841      9838      9840      9842      9838      9840      9890
      9841      9840      9842      9841      9840      9890      9842      9840      9890
      9831      9843      9844      9831      9843      9845      9831      9843      9846
      9844      9843      9845      9844      9843      9846      9845      9843      9846
      9843      9846      9847      9843      9846      9848      9843      9846      9849
      9847      9846      9848      9847      9846      9849      9848      9846      9849
      9846      9849      9850      9846      9849      9851      9846      9849      9852
      9850      9849      9851      9850      9849      9852      9851      9849      9852
      9849      9852      9853      9849      9852      9854      9849      9852      9855
      9853      9852      9854      9853      9852      9855      9854      9852      9855
      9852      9855      9856      9852      9855      9857      9852      9855      9858
      9856      9855      9857      9856      9855      9858      9857      9855      9858
      9855      9858      9859      9855      9858      9860      9855      9858      9861
      9859      9858      9860      9859      9858      9861      9860      9858      9861
      9858      9861      9862      9858      9861      9863      9862      9861      9863
      9861      9863      9864      9861      9863      9865      9864      9863      9865
      9863      9865      9866      9863      9865      9867      9863      9865      9868
      9866      9865      9867      9866      9865      9868      9867      9865      9868
      9865      9868      9869      9865      9868      9870      9865      9868      9871
      9869      9868      9870      9869      9868      9871      9870      9868      9871
      9868      9871      9872      9868      9871      9873      9868      9871      9874
      9872      9871      9873      9872      9871      9874      9873      9871      9874
      9871      9874      9875      9871      9874      9876      9871      9874      9877
      9875      9874      9876      9875      9874      9877      9876      9874      9877
      9874      9877      9878      9874      9877      9879      9874      9877      9880
      9878      9877      9879      9878      9877      9880      9879      9877      9880
      9877      9880      9881      9877      9880      9882      9877      9880      9883
      9881      9880      9882      9881      9880      9883      9882      9880      9883
      9880      9883      9884      9880      9883      9885      9880      9883      9886
      9884      9883      9885      9884      9883      9886      9885      9883      9886
      9883      9886      9887      9883      9886      9888      9883      9886      9889
      9887      9886      9888      9887      9886      9889      9888      9886      9889
      9840      9890      9891      9840      9890      9892      9840      9890      9893
      9891      9890      9892      9891      9890      9893      9892      9890      9893
      9890      9893      9894      9890      9893      9895      9890      9893      9896
      9894      9893      9895      9894      9893      9896      9895      9893      9896
      9893      9896      9897      9893      9896      9898      9893      9896      9899
      9897      9896      9898      9897      9896      9899      9898      9896      9899
      9896      9899      9900      9896      9899      9901      9896      9899      9902
      9900      9899      9901      9900      9899      9902      9901      9899      9902
      9899      9902      9903      9899      9902      9904      9899      9902      9905
      9903      9902      9904      9903      9902      9905      9904      9902      9905
      9902      9905      9906      9902      9905      9907      9902      9905      9908
      9906      9905      9907      9906      9905      9908      9907      9905      9908
      9905      9908      9909      9905      9908      9910      9909      9908      9910
      9908      9910      9911      9908      9910      9912      9911      9910      9912
      9910      9912      9913      9910      9912      9914      9910      9912      9915
      9913      9912      9914      9913      9912      9915      9914      9912      9915
      9912      9915      9916      9912      9915      9917      9912      9915      9918
      9916      9915      9917      9916      9915      9918      9917      9915      9918
      9915      9918      9919      9915      9918      9920      9915      9918      9921
      9919      9918      9920      9919      9918      9921      9920      9918      9921
      9918      9921      9922      9918      9921      9923      9918      9921      9924
      9922      9921      9923      9922      9921      9924      9923      9921      9924
      9921      9924      9925      9921      9924      9926      9921      9924      9927
      9925      9924      9926      9925      9924      9927      9926      9924      9927
      9924      9927      9928      9924      9927      9929      9924      9927      9930
      9928      9927      9929      9928      9927      9930      9929      9927      9930
      9927      9930      9931      9927      9930      9932      9927      9930      9933
      9931      9930      9932      9931      9930      9933      9932      9930      9933
      9930      9933      9934      9930      9933      9935      9930      9933      9936
      9934      9933      9935      9934      9933      9936      9935      9933      9936
      9938      9937      9941      9938      9937      9945      9938      9937      9949
      9941      9937      9945      9941      9937      9949      9945      9937      9949
      9937      9938      9939      9937      9938      9940      9937      9938      9953
      9939      9938      9940      9939      9938      9953      9940      9938      9953
      9937      9941      9942      9937      9941      9943      9937      9941      9944
      9942      9941      9943      9942      9941      9944      9943      9941      9944
      9937      9945      9946      9937      9945      9947      9937      9945      9948
      9946      9945      9947      9946      9945      9948      9947      9945      9948
      9937      9949      9950      9937      9949      9951      9937      9949      9952
      9950      9949      9951      9950      9949      9952      9951      9949      9952
      9938      9953      9954      9938      9953      9955      9938      9953      9959
      9954      9953      9955      9954      9953      9959      9955      9953      9959
      9957      9956      9958      9957      9956      9959      9957      9956      9960
      9958      9956      9959      9958      9956      9960      9959      9956      9960
      9953      9959      9956      9956      9960      9961      9960      9961      9962
      9960      9961      9963      9960      9961      9964      9962      9961      9963
      9962      9961      9964      9963      9961      9964      9961      9964      9965
      9961      9964      9966      9961      9964      9972      9965      9964      9966
      9965      9964      9972      9966      9964      9972      9964      9966      9967
      9966      9967      9968      9966      9967      9969      9968      9967      9969
      9967      9969      9970      9967      9969      9971      9967      9969      9981
      9970      9969      9971      9970      9969      9981      9971      9969      9981
      9964      9972      9973      9964      9972      9974      9964      9972      9975
      9973      9972      9974      9973      9972      9975      9974      9972      9975
      9972      9975      9976      9975      9976      9977      9975      9976      9978
      9977      9976      9978      9976      9978      9979      9976      9978      9980
      9976      9978     10028      9979      9978      9980      9979      9978     10028
      9980      9978     10028      9969      9981      9982      9969      9981      9983
      9969      9981      9984      9982      9981      9983      9982      9981      9984
      9983      9981      9984      9981      9984      9985      9981      9984      9986
      9981      9984      9987      9985      9984      9986      9985      9984      9987
      9986      9984      9987      9984      9987      9988      9984      9987      9989
      9984      9987      9990      9988      9987      9989      9988      9987      9990
      9989      9987      9990      9987      9990      9991      9987      9990      9992
      9987      9990      9993      9991      9990      9992      9991      9990      9993
      9992      9990      9993      9990      9993      9994      9990      9993      9995
      9990      9993      9996      9994      9993      9995      9994      9993      9996
      9995      9993      9996      9993      9996      9997      9993      9996      9998
      9993      9996      9999      9997      9996      9998      9997      9996      9999
      9998      9996      9999      9996      9999     10000      9996      9999     10001
     10000      9999     10001      9999     10001     10002      9999     10001     10003
     10002     10001     10003     10001     10003     10004     10001     10003     10005
     10001     10003     10006     10004     10003     10005     10004     10003     10006
     10005     10003     10006     10003     10006     10007     10003     10006     10008
     10003     10006     10009     10007     10006     10008     10007     10006     10009
     10008     10006     10009     10006     10009     10010     10006     10009     10011
     10006     10009     10012     10010     10009     10011     10010     10009     10012
     10011     10009     10012     10009     10012     10013     10009     10012     10014
     10009     10012     10015     10013     10012     10014     10013     10012     10015
     10014     10012     10015     10012     10015     10016     10012     10015     10017
     10012     10015     10018     10016     10015     10017     10016     10015     10018
     10017     10015     10018     10015     10018     10019     10015     10018     10020
     10015     10018     10021     10019     10018     10020     10019     10018     10021
     10020     10018     10021     10018     10021     10022     10018     10021     10023
     10018     10021     10024     10022     10021     10023     10022     10021     10024
     10023     10021     10024     10021     10024     10025     10021     10024     10026
     10021     10024     10027     10025     10024     10026     10025     10024     10027
     10026     10024     10027      9978     10028     10029      9978     10028     10030
      9978     10028     10031     10029     10028     10030     10029     10028     10031
     10030     10028     10031     10028     10031     10032     10028     10031     10033
     10028     10031     10034     10032     10031     10033     10032     10031     10034
     10033     10031     10034     10031     10034     10035     10031     10034     10036
     10031     10034     10037     10035     10034     10036     10035     10034     10037
     10036     10034     10037     10034     10037     10038     10034     10037     10039
     10034     10037     10040     10038     10037     10039     10038     10037     10040
     10039     10037     10040     10037     10040     10041     10037     10040     10042
     10037     10040     10043     10041     10040     10042     10041     10040     10043
     10042     10040     10043     10040     10043     10044     10040     10043     10045
     10040     10043     10046     10044     10043     10045     10044     10043     10046
     10045     10043     10046     10043     10046     10047     10043     10046     10048
     10047     10046     10048     10046     10048     10049     10046     10048     10050
     10049     10048     10050     10048     10050     10051     10048     10050     10052
     10048     10050     10053     10051     10050     10052     10051     10050     10053
     10052     10050     10053     10050     10053     10054     10050     10053     10055
     10050     10053     10056     10054     10053     10055     10054     10053     10056
     10055     10053     10056     10053     10056     10057     10053     10056     10058
     10053     10056     10059     10057     10056     10058     10057     10056     10059
     10058     10056     10059     10056     10059     10060     10056     10059     10061
     10056     10059     10062     10060     10059     10061     10060     10059     10062
     10061     10059     10062     10059     10062     10063     10059     10062     10064
     10059     10062     10065     10063     10062     10064     10063     10062     10065
     10064     10062     10065     10062     10065     10066     10062     10065     10067
     10062     10065     10068     10066     10065     10067     10066     10065     10068
     10067     10065     10068     10065     10068     10069     10065     10068     10070
     10065     10068     10071     10069     10068     10070     10069     10068     10071
     10070     10068     10071     10068     10071     10072     10068     10071     10073
     10068     10071     10074     10072     10071     10073     10072     10071     10074
     10073     10071     10074     10076     10075     10079     10076     10075     10083
     10076     10075     10087     10079     10075     10083     10079     10075     10087
     10083     10075     10087     10075     10076     10077     10075     10076     10078
     10075     10076     10091     10077     10076     10078     10077     10076     10091
     10078     10076     10091     10075     10079     10080     10075     10079     10081
     10075     10079     10082     10080     10079     10081     10080     10079     10082
     10081     10079     10082     10075     10083     10084     10075     10083     10085
     10075     10083     10086     10084     10083     10085     10084     10083     10086
     10085     10083     10086     10075     10087     10088     10075     10087     10089
     10075     10087     10090     10088     10087     10089     10088     10087     10090
     10089     10087     10090     10076     10091     10092     10076     10091     10093
     10076     10091     10097     10092     10091     10093     10092     10091     10097
     10093     10091     10097     10095     10094     10096     10095     10094     10097
     10095     10094     10098     10096     10094     10097     10096     10094     10098
     10097     10094     10098     10091     10097     10094     10094     10098     10099
     10098     10099     10100     10098     10099     10101     10098     10099     10102
     10100     10099     10101     10100     10099     10102     10101     10099     10102
     10099     10102     10103     10099     10102     10104     10099     10102     10110
     10103     10102     10104     10103     10102     10110     10104     10102     10110
     10102     10104     10105     10104     10105     10106     10104     10105     10107
     10106     10105     10107     10105     10107     10108     10105     10107     10109
     10105     10107     10119     10108     10107     10109     10108     10107     10119
     10109     10107     10119     10102     10110     10111     10102     10110     10112
     10102     10110     10113     10111     10110     10112     10111     10110     10113
     10112     10110     10113     10110     10113     10114     10113     10114     10115
     10113     10114     10116     10115     10114     10116     10114     10116     10117
     10114     10116     10118     10114     10116     10166     10117     10116     10118
     10117     10116     10166     10118     10116     10166     10107     10119     10120
     10107     10119     10121     10107     10119     10122     10120     10119     10121
     10120     10119     10122     10121     10119     10122     10119     10122     10123
     10119     10122     10124     10119     10122     10125     10123     10122     10124
     10123     10122     10125     10124     10122     10125     10122     10125     10126
     10122     10125     10127     10122     10125     10128     10126     10125     10127
     10126     10125     10128     10127     10125     10128     10125     10128     10129
     10125     10128     10130     10125     10128     10131     10129     10128     10130
     10129     10128     10131     10130     10128     10131     10128     10131     10132
     10128     10131     10133     10128     10131     10134     10132     10131     10133
     10132     10131     10134     10133     10131     10134     10131     10134     10135
     10131     10134     10136     10131     10134     10137     10135     10134     10136
     10135     10134     10137     10136     10134     10137     10134     10137     10138
     10134     10137     10139     10138     10137     10139     10137     10139     10140
     10137     10139     10141     10140     10139     10141     10139     10141     10142
     10139     10141     10143     10139     10141     10144     10142     10141     10143
     10142     10141     10144     10143     10141     10144     10141     10144     10145
     10141     10144     10146     10141     10144     10147     10145     10144     10146
     10145     10144     10147     10146     10144     10147     10144     10147     10148
     10144     10147     10149     10144     10147     10150     10148     10147     10149
     10148     10147     10150     10149     10147     10150     10147     10150     10151
     10147     10150     10152     10147     10150     10153     10151     10150     10152
     10151     10150     10153     10152     10150     10153     10150     10153     10154
     10150     10153     10155     10150     10153     10156     10154     10153     10155
     10154     10153     10156     10155     10153     10156     10153     10156     10157
     10153     10156     10158     10153     10156     10159     10157     10156     10158
     10157     10156     10159     10158     10156     10159     10156     10159     10160
     10156     10159     10161     10156     10159     10162     10160     10159     10161
     10160     10159     10162     10161     10159     10162     10159     10162     10163
     10159     10162     10164     10159     10162     10165     10163     10162     10164
     10163     10162     10165     10164     10162     10165     10116     10166     10167
     10116     10166     10168     10116     10166     10169     10167     10166     10168
     10167     10166     10169     10168     10166     10169     10166     10169     10170
     10166     10169     10171     10166     10169     10172     10170     10169     10171
     10170     10169     10172     10171     10169     10172     10169     10172     10173
     10169     10172     10174     10169     10172     10175     10173     10172     10174
     10173     10172     10175     10174     10172     10175     10172     10175     10176
     10172     10175     10177     10172     10175     10178     10176     10175     10177
     10176     10175     10178     10177     10175     10178     10175     10178     10179
     10175     10178     10180     10175     10178     10181     10179     10178     10180
     10179     10178     10181     10180     10178     10181     10178     10181     10182
     10178     10181     10183     10178     10181     10184     10182     10181     10183
     10182     10181     10184     10183     10181     10184     10181     10184     10185
     10181     10184     10186     10185     10184     10186     10184     10186     10187
     10184     10186     10188     10187     10186     10188     10186     10188     10189
     10186     10188     10190     10186     10188     10191     10189     10188     10190
     10189     10188     10191     10190     10188     10191     10188     10191     10192
     10188     10191     10193     10188     10191     10194     10192     10191     10193
     10192     10191     10194     10193     10191     10194     10191     10194     10195
     10191     10194     10196     10191     10194     10197     10195     10194     10196
     10195     10194     10197     10196     10194     10197     10194     10197     10198
     10194     10197     10199     10194     10197     10200     10198     10197     10199
     10198     10197     10200     10199     10197     10200     10197     10200     10201
     10197     10200     10202     10197     10200     10203     10201     10200     10202
     10201     10200     10203     10202     10200     10203     10200     10203     10204
     10200     10203     10205     10200     10203     10206     10204     10203     10205
     10204     10203     10206     10205     10203     10206     10203     10206     10207
     10203     10206     10208     10203     10206     10209     10207     10206     10208
     10207     10206     10209     10208     10206     10209     10206     10209     10210
     10206     10209     10211     10206     10209     10212     10210     10209     10211
     10210     10209     10212     10211     10209     10212     10214     10213     10217
     10214     10213     10221     10214     10213     10225     10217     10213     10221
     10217     10213     10225     10221     10213     10225     10213     10214     10215
     10213     10214     10216     10213     10214     10229     10215     10214     10216
     10215     10214     10229     10216     10214     10229     10213     10217     10218
     10213     10217     10219     10213     10217     10220     10218     10217     10219
     10218     10217     10220     10219     10217     10220     10213     10221     10222
     10213     10221     10223     10213     10221     10224     10222     10221     10223
     10222     10221     10224     10223     10221     10224     10213     10225     10226
     10213     10225     10227     10213     10225     10228     10226     10225     10227
     10226     10225     10228     10227     10225     10228     10214     10229     10230
     10214     10229     10231     10214     10229     10235     10230     10229     10231
     10230     10229     10235     10231     10229     10235     10233     10232     10234
     10233     10232     10235     10233     10232     10236     10234     10232     10235
     10234     10232     10236     10235     10232     10236     10229     10235     10232
     10232     10236     10237     10236     10237     10238     10236     10237     10239
     10236     10237     10240     10238     10237     10239     10238     10237     10240
     10239     10237     10240     10237     10240     10241     10237     10240     10242
     10237     10240     10248     10241     10240     10242     10241     10240     10248
     10242     10240     10248     10240     10242     10243     10242     10243     10244
     10242     10243     10245     10244     10243     10245     10243     10245     10246
     10243     10245     10247     10243     10245     10257     10246     10245     10247
     10246     10245     10257     10247     10245     10257     10240     10248     10249
     10240     10248     10250     10240     10248     10251     10249     10248     10250
     10249     10248     10251     10250     10248     10251     10248     10251     10252
     10251     10252     10253     10251     10252     10254     10253     10252     10254
     10252     10254     10255     10252     10254     10256     10252     10254     10304
     10255     10254     10256     10255     10254     10304     10256     10254     10304
     10245     10257     10258     10245     10257     10259     10245     10257     10260
     10258     10257     10259     10258     10257     10260     10259     10257     10260
     10257     10260     10261     10257     10260     10262     10257     10260     10263
     10261     10260     10262     10261     10260     10263     10262     10260     10263
     10260     10263     10264     10260     10263     10265     10260     10263     10266
     10264     10263     10265     10264     10263     10266     10265     10263     10266
     10263     10266     10267     10263     10266     10268     10263     10266     10269
     10267     10266     10268     10267     10266     10269     10268     10266     10269
     10266     10269     10270     10266     10269     10271     10266     10269     10272
     10270     10269     10271     10270     10269     10272     10271     10269     10272
     10269     10272     10273     10269     10272     10274     10269     10272     10275
     10273     10272     10274     10273     10272     10275     10274     10272     10275
     10272     10275     10276     10272     10275     10277     10276     10275     10277
     10275     10277     10278     10275     10277     10279     10278     10277     10279
     10277     10279     10280     10277     10279     10281     10277     10279     10282
     10280     10279     10281     10280     10279     10282     10281     10279     10282
     10279     10282     10283     10279     10282     10284     10279     10282     10285
     10283     10282     10284     10283     10282     10285     10284     10282     10285
     10282     10285     10286     10282     10285     10287     10282     10285     10288
     10286     10285     10287     10286     10285     10288     10287     10285     10288
     10285     10288     10289     10285     10288     10290     10285     10288     10291
     10289     10288     10290     10289     10288     10291     10290     10288     10291
     10288     10291     10292     10288     10291     10293     10288     10291     10294
     10292     10291     10293     10292     10291     10294     10293     10291     10294
     10291     10294     10295     10291     10294     10296     10291     10294     10297
     10295     10294     10296     10295     10294     10297     10296     10294     10297
     10294     10297     10298     10294     10297     10299     10294     10297     10300
     10298     10297     10299     10298     10297     10300     10299     10297     10300
     10297     10300     10301     10297     10300     10302     10297     10300     10303
     10301     10300     10302     10301     10300     10303     10302     10300     10303
     10254     10304     10305     10254     10304     10306     10254     10304     10307
     10305     10304     10306     10305     10304     10307     10306     10304     10307
     10304     10307     10308     10304     10307     10309     10304     10307     10310
     10308     10307     10309     10308     10307     10310     10309     10307     10310
     10307     10310     10311     10307     10310     10312     10307     10310     10313
     10311     10310     10312     10311     10310     10313     10312     10310     10313
     10310     10313     10314     10310     10313     10315     10310     10313     10316
     10314     10313     10315     10314     10313     10316     10315     10313     10316
     10313     10316     10317     10313     10316     10318     10313     10316     10319
     10317     10316     10318     10317     10316     10319     10318     10316     10319
     10316     10319     10320     10316     10319     10321     10316     10319     10322
     10320     10319     10321     10320     10319     10322     10321     10319     10322
     10319     10322     10323     10319     10322     10324     10323     10322     10324
     10322     10324     10325     10322     10324     10326     10325     10324     10326
     10324     10326     10327     10324     10326     10328     10324     10326     10329
     10327     10326     10328     10327     10326     10329     10328     10326     10329
     10326     10329     10330     10326     10329     10331     10326     10329     10332
     10330     10329     10331     10330     10329     10332     10331     10329     10332
     10329     10332     10333     10329     10332     10334     10329     10332     10335
     10333     10332     10334     10333     10332     10335     10334     10332     10335
     10332     10335     10336     10332     10335     10337     10332     10335     10338
     10336     10335     10337     10336     10335     10338     10337     10335     10338
     10335     10338     10339     10335     10338     10340     10335     10338     10341
     10339     10338     10340     10339     10338     10341     10340     10338     10341
     10338     10341     10342     10338     10341     10343     10338     10341     10344
     10342     10341     10343     10342     10341     10344     10343     10341     10344
     10341     10344     10345     10341     10344     10346     10341     10344     10347
     10345     10344     10346     10345     10344     10347     10346     10344     10347
     10344     10347     10348     10344     10347     10349     10344     10347     10350
     10348     10347     10349     10348     10347     10350     10349     10347     10350
     10352     10351     10355     10352     10351     10359     10352     10351     10363
     10355     10351     10359     10355     10351     10363     10359     10351     10363
     10351     10352     10353     10351     10352     10354     10351     10352     10367
     10353     10352     10354     10353     10352     10367     10354     10352     10367
     10351     10355     10356     10351     10355     10357     10351     10355     10358
     10356     10355     10357     10356     10355     10358     10357     10355     10358
     10351     10359     10360     10351     10359     10361     10351     10359     10362
     10360     10359     10361     10360     10359     10362     10361     10359     10362
     10351     10363     10364     10351     10363     10365     10351     10363     10366
     10364     10363     10365     10364     10363     10366     10365     10363     10366
     10352     10367     10368     10352     10367     10369     10352     10367     10373
     10368     10367     10369     10368     10367     10373     10369     10367     10373
     10371     10370     10372     10371     10370     10373     10371     10370     10374
     10372     10370     10373     10372     10370     10374     10373     10370     10374
     10367     10373     10370     10370     10374     10375     10374     10375     10376
     10374     10375     10377     10374     10375     10378     10376     10375     10377
     10376     10375     10378     10377     10375     10378     10375     10378     10379
     10375     10378     10380     10375     10378     10386     10379     10378     10380
     10379     10378     10386     10380     10378     10386     10378     10380     10381
     10380     10381     10382     10380     10381     10383     10382     10381     10383
     10381     10383     10384     10381     10383     10385     10381     10383     10395
     10384     10383     10385     10384     10383     10395     10385     10383     10395
     10378     10386     10387     10378     10386     10388     10378     10386     10389
     10387     10386     10388     10387     10386     10389     10388     10386     10389
     10386     10389     10390     10389     10390     10391     10389     10390     10392
     10391     10390     10392     10390     10392     10393     10390     10392     10394
     10390     10392     10442     10393     10392     10394     10393     10392     10442
     10394     10392     10442     10383     10395     10396     10383     10395     10397
     10383     10395     10398     10396     10395     10397     10396     10395     10398
     10397     10395     10398     10395     10398     10399     10395     10398     10400
     10395     10398     10401     10399     10398     10400     10399     10398     10401
     10400     10398     10401     10398     10401     10402     10398     10401     10403
     10398     10401     10404     10402     10401     10403     10402     10401     10404
     10403     10401     10404     10401     10404     10405     10401     10404     10406
     10401     10404     10407     10405     10404     10406     10405     10404     10407
     10406     10404     10407     10404     10407     10408     10404     10407     10409
     10404     10407     10410     10408     10407     10409     10408     10407     10410
     10409     10407     10410     10407     10410     10411     10407     10410     10412
     10407     10410     10413     10411     10410     10412     10411     10410     10413
     10412     10410     10413     10410     10413     10414     10410     10413     10415
     10414     10413     10415     10413     10415     10416     10413     10415     10417
     10416     10415     10417     10415     10417     10418     10415     10417     10419
     10415     10417     10420     10418     10417     10419     10418     10417     10420
     10419     10417     10420     10417     10420     10421     10417     10420     10422
     10417     10420     10423     10421     10420     10422     10421     10420     10423
     10422     10420     10423     10420     10423     10424     10420     10423     10425
     10420     10423     10426     10424     10423     10425     10424     10423     10426
     10425     10423     10426     10423     10426     10427     10423     10426     10428
     10423     10426     10429     10427     10426     10428     10427     10426     10429
     10428     10426     10429     10426     10429     10430     10426     10429     10431
     10426     10429     10432     10430     10429     10431     10430     10429     10432
     10431     10429     10432     10429     10432     10433     10429     10432     10434
     10429     10432     10435     10433     10432     10434     10433     10432     10435
     10434     10432     10435     10432     10435     10436     10432     10435     10437
     10432     10435     10438     10436     10435     10437     10436     10435     10438
     10437     10435     10438     10435     10438     10439     10435     10438     10440
     10435     10438     10441     10439     10438     10440     10439     10438     10441
     10440     10438     10441     10392     10442     10443     10392     10442     10444
     10392     10442     10445     10443     10442     10444     10443     10442     10445
     10444     10442     10445     10442     10445     10446     10442     10445     10447
     10442     10445     10448     10446     10445     10447     10446     10445     10448
     10447     10445     10448     10445     10448     10449     10445     10448     10450
     10445     10448     10451     10449     10448     10450     10449     10448     10451
     10450     10448     10451     10448     10451     10452     10448     10451     10453
     10448     10451     10454     10452     10451     10453     10452     10451     10454
     10453     10451     10454     10451     10454     10455     10451     10454     10456
     10451     10454     10457     10455     10454     10456     10455     10454     10457
     10456     10454     10457     10454     10457     10458     10454     10457     10459
     10454     10457     10460     10458     10457     10459     10458     10457     10460
     10459     10457     10460     10457     10460     10461     10457     10460     10462
     10461     10460     10462     10460     10462     10463     10460     10462     10464
     10463     10462     10464     10462     10464     10465     10462     10464     10466
     10462     10464     10467     10465     10464     10466     10465     10464     10467
     10466     10464     10467     10464     10467     10468     10464     10467     10469
     10464     10467     10470     10468     10467     10469     10468     10467     10470
     10469     10467     10470     10467     10470     10471     10467     10470     10472
     10467     10470     10473     10471     10470     10472     10471     10470     10473
     10472     10470     10473     10470     10473     10474     10470     10473     10475
     10470     10473     10476     10474     10473     10475     10474     10473     10476
     10475     10473     10476     10473     10476     10477     10473     10476     10478
     10473     10476     10479     10477     10476     10478     10477     10476     10479
     10478     10476     10479     10476     10479     10480     10476     10479     10481
     10476     10479     10482     10480     10479     10481     10480     10479     10482
     10481     10479     10482     10479     10482     10483     10479     10482     10484
     10479     10482     10485     10483     10482     10484     10483     10482     10485
     10484     10482     10485     10482     10485     10486     10482     10485     10487
     10482     10485     10488     10486     10485     10487     10486     10485     10488
     10487     10485     10488     10490     10489     10493     10490     10489     10497
     10490     10489     10501     10493     10489     10497     10493     10489     10501
     10497     10489     10501     10489     10490     10491     10489     10490     10492
     10489     10490     10505     10491     10490     10492     10491     10490     10505
     10492     10490     10505     10489     10493     10494     10489     10493     10495
     10489     10493     10496     10494     10493     10495     10494     10493     10496
     10495     10493     10496     10489     10497     10498     10489     10497     10499
     10489     10497     10500     10498     10497     10499     10498     10497     10500
     10499     10497     10500     10489     10501     10502     10489     10501     10503
     10489     10501     10504     10502     10501     10503     10502     10501     10504
     10503     10501     10504     10490     10505     10506     10490     10505     10507
     10490     10505     10511     10506     10505     10507     10506     10505     10511
     10507     10505     10511     10509     10508     10510     10509     10508     10511
     10509     10508     10512     10510     10508     10511     10510     10508     10512
     10511     10508     10512     10505     10511     10508     10508     10512     10513
     10512     10513     10514     10512     10513     10515     10512     10513     10516
     10514     10513     10515     10514     10513     10516     10515     10513     10516
     10513     10516     10517     10513     10516     10518     10513     10516     10524
     10517     10516     10518     10517     10516     10524     10518     10516     10524
     10516     10518     10519     10518     10519     10520     10518     10519     10521
     10520     10519     10521     10519     10521     10522     10519     10521     10523
     10519     10521     10533     10522     10521     10523     10522     10521     10533
     10523     10521     10533     10516     10524     10525     10516     10524     10526
     10516     10524     10527     10525     10524     10526     10525     10524     10527
     10526     10524     10527     10524     10527     10528     10527     10528     10529
     10527     10528     10530     10529     10528     10530     10528     10530     10531
     10528     10530     10532     10528     10530     10580     10531     10530     10532
     10531     10530     10580     10532     10530     10580     10521     10533     10534
     10521     10533     10535     10521     10533     10536     10534     10533     10535
     10534     10533     10536     10535     10533     10536     10533     10536     10537
     10533     10536     10538     10533     10536     10539     10537     10536     10538
     10537     10536     10539     10538     10536     10539     10536     10539     10540
     10536     10539     10541     10536     10539     10542     10540     10539     10541
     10540     10539     10542     10541     10539     10542     10539     10542     10543
     10539     10542     10544     10539     10542     10545     10543     10542     10544
     10543     10542     10545     10544     10542     10545     10542     10545     10546
     10542     10545     10547     10542     10545     10548     10546     10545     10547
     10546     10545     10548     10547     10545     10548     10545     10548     10549
     10545     10548     10550     10545     10548     10551     10549     10548     10550
     10549     10548     10551     10550     10548     10551     10548     10551     10552
     10548     10551     10553     10552     10551     10553     10551     10553     10554
     10551     10553     10555     10554     10553     10555     10553     10555     10556
     10553     10555     10557     10553     10555     10558     10556     10555     10557
     10556     10555     10558     10557     10555     10558     10555     10558     10559
     10555     10558     10560     10555     10558     10561     10559     10558     10560
     10559     10558     10561     10560     10558     10561     10558     10561     10562
     10558     10561     10563     10558     10561     10564     10562     10561     10563
     10562     10561     10564     10563     10561     10564     10561     10564     10565
     10561     10564     10566     10561     10564     10567     10565     10564     10566
     10565     10564     10567     10566     10564     10567     10564     10567     10568
     10564     10567     10569     10564     10567     10570     10568     10567     10569
     10568     10567     10570     10569     10567     10570     10567     10570     10571
     10567     10570     10572     10567     10570     10573     10571     10570     10572
     10571     10570     10573     10572     10570     10573     10570     10573     10574
     10570     10573     10575     10570     10573     10576     10574     10573     10575
     10574     10573     10576     10575     10573     10576     10573     10576     10577
     10573     10576     10578     10573     10576     10579     10577     10576     10578
     10577     10576     10579     10578     10576     10579     10530     10580     10581
     10530     10580     10582     10530     10580     10583     10581     10580     10582
     10581     10580     10583     10582     10580     10583     10580     10583     10584
     10580     10583     10585     10580     10583     10586     10584     10583     10585
     10584     10583     10586     10585     10583     10586     10583     10586     10587
     10583     10586     10588     10583     10586     10589     10587     10586     10588
     10587     10586     10589     10588     10586     10589     10586     10589     10590
     10586     10589     10591     10586     10589     10592     10590     10589     10591
     10590     10589     10592     10591     10589     10592     10589     10592     10593
     10589     10592     10594     10589     10592     10595     10593     10592     10594
     10593     10592     10595     10594     10592     10595     10592     10595     10596
     10592     10595     10597     10592     10595     10598     10596     10595     10597
     10596     10595     10598     10597     10595     10598     10595     10598     10599
     10595     10598     10600     10599     10598     10600     10598     10600     10601
     10598     10600     10602     10601     10600     10602     10600     10602     10603
     10600     10602     10604     10600     10602     10605     10603     10602     10604
     10603     10602     10605     10604     10602     10605     10602     10605     10606
     10602     10605     10607     10602     10605     10608     10606     10605     10607
     10606     10605     10608     10607     10605     10608     10605     10608     10609
     10605     10608     10610     10605     10608     10611     10609     10608     10610
     10609     10608     10611     10610     10608     10611     10608     10611     10612
     10608     10611     10613     10608     10611     10614     10612     10611     10613
     10612     10611     10614     10613     10611     10614     10611     10614     10615
     10611     10614     10616     10611     10614     10617     10615     10614     10616
     10615     10614     10617     10616     10614     10617     10614     10617     10618
     10614     10617     10619     10614     10617     10620     10618     10617     10619
     10618     10617     10620     10619     10617     10620     10617     10620     10621
     10617     10620     10622     10617     10620     10623     10621     10620     10622
     10621     10620     10623     10622     10620     10623     10620     10623     10624
     10620     10623     10625     10620     10623     10626     10624     10623     10625
     10624     10623     10626     10625     10623     10626     10628     10627     10631
     10628     10627     10635     10628     10627     10639     10631     10627     10635
     10631     10627     10639     10635     10627     10639     10627     10628     10629
     10627     10628     10630     10627     10628     10643     10629     10628     10630
     10629     10628     10643     10630     10628     10643     10627     10631     10632
     10627     10631     10633     10627     10631     10634     10632     10631     10633
     10632     10631     10634     10633     10631     10634     10627     10635     10636
     10627     10635     10637     10627     10635     10638     10636     10635     10637
     10636     10635     10638     10637     10635     10638     10627     10639     10640
     10627     10639     10641     10627     10639     10642     10640     10639     10641
     10640     10639     10642     10641     10639     10642     10628     10643     10644
     10628     10643     10645     10628     10643     10649     10644     10643     10645
     10644     10643     10649     10645     10643     10649     10647     10646     10648
     10647     10646     10649     10647     10646     10650     10648     10646     10649
     10648     10646     10650     10649     10646     10650     10643     10649     10646
     10646     10650     10651     10650     10651     10652     10650     10651     10653
     10650     10651     10654     10652     10651     10653     10652     10651     10654
     10653     10651     10654     10651     10654     10655     10651     10654     10656
     10651     10654     10662     10655     10654     10656     10655     10654     10662
     10656     10654     10662     10654     10656     10657     10656     10657     10658
     10656     10657     10659     10658     10657     10659     10657     10659     10660
     10657     10659     10661     10657     10659     10671     10660     10659     10661
     10660     10659     10671     10661     10659     10671     10654     10662     10663
     10654     10662     10664     10654     10662     10665     10663     10662     10664
     10663     10662     10665     10664     10662     10665     10662     10665     10666
     10665     10666     10667     10665     10666     10668     10667     10666     10668
     10666     10668     10669     10666     10668     10670     10666     10668     10718
     10669     10668     10670     10669     10668     10718     10670     10668     10718
     10659     10671     10672     10659     10671     10673     10659     10671     10674
     10672     10671     10673     10672     10671     10674     10673     10671     10674
     10671     10674     10675     10671     10674     10676     10671     10674     10677
     10675     10674     10676     10675     10674     10677     10676     10674     10677
     10674     10677     10678     10674     10677     10679     10674     10677     10680
     10678     10677     10679     10678     10677     10680     10679     10677     10680
     10677     10680     10681     10677     10680     10682     10677     10680     10683
     10681     10680     10682     10681     10680     10683     10682     10680     10683
     10680     10683     10684     10680     10683     10685     10680     10683     10686
     10684     10683     10685     10684     10683     10686     10685     10683     10686
     10683     10686     10687     10683     10686     10688     10683     10686     10689
     10687     10686     10688     10687     10686     10689     10688     10686     10689
     10686     10689     10690     10686     10689     10691     10690     10689     10691
     10689     10691     10692     10689     10691     10693     10692     10691     10693
     10691     10693     10694     10691     10693     10695     10691     10693     10696
     10694     10693     10695     10694     10693     10696     10695     10693     10696
     10693     10696     10697     10693     10696     10698     10693     10696     10699
     10697     10696     10698     10697     10696     10699     10698     10696     10699
     10696     10699     10700     10696     10699     10701     10696     10699     10702
     10700     10699     10701     10700     10699     10702     10701     10699     10702
     10699     10702     10703     10699     10702     10704     10699     10702     10705
     10703     10702     10704     10703     10702     10705     10704     10702     10705
     10702     10705     10706     10702     10705     10707     10702     10705     10708
     10706     10705     10707     10706     10705     10708     10707     10705     10708
     10705     10708     10709     10705     10708     10710     10705     10708     10711
     10709     10708     10710     10709     10708     10711     10710     10708     10711
     10708     10711     10712     10708     10711     10713     10708     10711     10714
     10712     10711     10713     10712     10711     10714     10713     10711     10714
     10711     10714     10715     10711     10714     10716     10711     10714     10717
     10715     10714     10716     10715     10714     10717     10716     10714     10717
     10668     10718     10719     10668     10718     10720     10668     10718     10721
     10719     10718     10720     10719     10718     10721     10720     10718     10721
     10718     10721     10722     10718     10721     10723     10718     10721     10724
     10722     10721     10723     10722     10721     10724     10723     10721     10724
     10721     10724     10725     10721     10724     10726     10721     10724     10727
     10725     10724     10726     10725     10724     10727     10726     10724     10727
     10724     10727     10728     10724     10727     10729     10724     10727     10730
     10728     10727     10729     10728     10727     10730     10729     10727     10730
     10727     10730     10731     10727     10730     10732     10727     10730     10733
     10731     10730     10732     10731     10730     10733     10732     10730     10733
     10730     10733     10734     10730     10733     10735     10730     10733     10736
     10734     10733     10735     10734     10733     10736     10735     10733     10736
     10733     10736     10737     10733     10736     10738     10737     10736     10738
     10736     10738     10739     10736     10738     10740     10739     10738     10740
     10738     10740     10741     10738     10740     10742     10738     10740     10743
     10741     10740     10742     10741     10740     10743     10742     10740     10743
     10740     10743     10744     10740     10743     10745     10740     10743     10746
     10744     10743     10745     10744     10743     10746     10745     10743     10746
     10743     10746     10747     10743     10746     10748     10743     10746     10749
     10747     10746     10748     10747     10746     10749     10748     10746     10749
     10746     10749     10750     10746     10749     10751     10746     10749     10752
     10750     10749     10751     10750     10749     10752     10751     10749     10752
     10749     10752     10753     10749     10752     10754     10749     10752     10755
     10753     10752     10754     10753     10752     10755     10754     10752     10755
     10752     10755     10756     10752     10755     10757     10752     10755     10758
     10756     10755     10757     10756     10755     10758     10757     10755     10758
     10755     10758     10759     10755     10758     10760     10755     10758     10761
     10759     10758     10760     10759     10758     10761     10760     10758     10761
     10758     10761     10762     10758     10761     10763     10758     10761     10764
     10762     10761     10763     10762     10761     10764     10763     10761     10764
     10766     10765     10769     10766     10765     10773     10766     10765     10777
     10769     10765     10773     10769     10765     10777     10773     10765     10777
     10765     10766     10767     10765     10766     10768     10765     10766     10781
     10767     10766     10768     10767     10766     10781     10768     10766     10781
     10765     10769     10770     10765     10769     10771     10765     10769     10772
     10770     10769     10771     10770     10769     10772     10771     10769     10772
     10765     10773     10774     10765     10773     10775     10765     10773     10776
     10774     10773     10775     10774     10773     10776     10775     10773     10776
     10765     10777     10778     10765     10777     10779     10765     10777     10780
     10778     10777     10779     10778     10777     10780     10779     10777     10780
     10766     10781     10782     10766     10781     10783     10766     10781     10787
     10782     10781     10783     10782     10781     10787     10783     10781     10787
     10785     10784     10786     10785     10784     10787     10785     10784     10788
     10786     10784     10787     10786     10784     10788     10787     10784     10788
     10781     10787     10784     10784     10788     10789     10788     10789     10790
     10788     10789     10791     10788     10789     10792     10790     10789     10791
     10790     10789     10792     10791     10789     10792     10789     10792     10793
     10789     10792     10794     10789     10792     10800     10793     10792     10794
     10793     10792     10800     10794     10792     10800     10792     10794     10795
     10794     10795     10796     10794     10795     10797     10796     10795     10797
     10795     10797     10798     10795     10797     10799     10795     10797     10809
     10798     10797     10799     10798     10797     10809     10799     10797     10809
     10792     10800     10801     10792     10800     10802     10792     10800     10803
     10801     10800     10802     10801     10800     10803     10802     10800     10803
     10800     10803     10804     10803     10804     10805     10803     10804     10806
     10805     10804     10806     10804     10806     10807     10804     10806     10808
     10804     10806     10856     10807     10806     10808     10807     10806     10856
     10808     10806     10856     10797     10809     10810     10797     10809     10811
     10797     10809     10812     10810     10809     10811     10810     10809     10812
     10811     10809     10812     10809     10812     10813     10809     10812     10814
     10809     10812     10815     10813     10812     10814     10813     10812     10815
     10814     10812     10815     10812     10815     10816     10812     10815     10817
     10812     10815     10818     10816     10815     10817     10816     10815     10818
     10817     10815     10818     10815     10818     10819     10815     10818     10820
     10815     10818     10821     10819     10818     10820     10819     10818     10821
     10820     10818     10821     10818     10821     10822     10818     10821     10823
     10818     10821     10824     10822     10821     10823     10822     10821     10824
     10823     10821     10824     10821     10824     10825     10821     10824     10826
     10821     10824     10827     10825     10824     10826     10825     10824     10827
     10826     10824     10827     10824     10827     10828     10824     10827     10829
     10828     10827     10829     10827     10829     10830     10827     10829     10831
     10830     10829     10831     10829     10831     10832     10829     10831     10833
     10829     10831     10834     10832     10831     10833     10832     10831     10834
     10833     10831     10834     10831     10834     10835     10831     10834     10836
     10831     10834     10837     10835     10834     10836     10835     10834     10837
     10836     10834     10837     10834     10837     10838     10834     10837     10839
     10834     10837     10840     10838     10837     10839     10838     10837     10840
     10839     10837     10840     10837     10840     10841     10837     10840     10842
     10837     10840     10843     10841     10840     10842     10841     10840     10843
     10842     10840     10843     10840     10843     10844     10840     10843     10845
     10840     10843     10846     10844     10843     10845     10844     10843     10846
     10845     10843     10846     10843     10846     10847     10843     10846     10848
     10843     10846     10849     10847     10846     10848     10847     10846     10849
     10848     10846     10849     10846     10849     10850     10846     10849     10851
     10846     10849     10852     10850     10849     10851     10850     10849     10852
     10851     10849     10852     10849     10852     10853     10849     10852     10854
     10849     10852     10855     10853     10852     10854     10853     10852     10855
     10854     10852     10855     10806     10856     10857     10806     10856     10858
     10806     10856     10859     10857     10856     10858     10857     10856     10859
     10858     10856     10859     10856     10859     10860     10856     10859     10861
     10856     10859     10862     10860     10859     10861     10860     10859     10862
     10861     10859     10862     10859     10862     10863     10859     10862     10864
     10859     10862     10865     10863     10862     10864     10863     10862     10865
     10864     10862     10865     10862     10865     10866     10862     10865     10867
     10862     10865     10868     10866     10865     10867     10866     10865     10868
     10867     10865     10868     10865     10868     10869     10865     10868     10870
     10865     10868     10871     10869     10868     10870     10869     10868     10871
     10870     10868     10871     10868     10871     10872     10868     10871     10873
     10868     10871     10874     10872     10871     10873     10872     10871     10874
     10873     10871     10874     10871     10874     10875     10871     10874     10876
     10875     10874     10876     10874     10876     10877     10874     10876     10878
     10877     10876     10878     10876     10878     10879     10876     10878     10880
     10876     10878     10881     10879     10878     10880     10879     10878     10881
     10880     10878     10881     10878     10881     10882     10878     10881     10883
     10878     10881     10884     10882     10881     10883     10882     10881     10884
     10883     10881     10884     10881     10884     10885     10881     10884     10886
     10881     10884     10887     10885     10884     10886     10885     10884     10887
     10886     10884     10887     10884     10887     10888     10884     10887     10889
     10884     10887     10890     10888     10887     10889     10888     10887     10890
     10889     10887     10890     10887     10890     10891     10887     10890     10892
     10887     10890     10893     10891     10890     10892     10891     10890     10893
     10892     10890     10893     10890     10893     10894     10890     10893     10895
     10890     10893     10896     10894     10893     10895     10894     10893     10896
     10895     10893     10896     10893     10896     10897     10893     10896     10898
     10893     10896     10899     10897     10896     10898     10897     10896     10899
     10898     10896     10899     10896     10899     10900     10896     10899     10901
     10896     10899     10902     10900     10899     10901     10900     10899     10902
     10901     10899     10902     10904     10903     10907     10904     10903     10911
     10904     10903     10915     10907     10903     10911     10907     10903     10915
     10911     10903     10915     10903     10904     10905     10903     10904     10906
     10903     10904     10919     10905     10904     10906     10905     10904     10919
     10906     10904     10919     10903     10907     10908     10903     10907     10909
     10903     10907     10910     10908     10907     10909     10908     10907     10910
     10909     10907     10910     10903     10911     10912     10903     10911     10913
     10903     10911     10914     10912     10911     10913     10912     10911     10914
     10913     10911     10914     10903     10915     10916     10903     10915     10917
     10903     10915     10918     10916     10915     10917     10916     10915     10918
     10917     10915     10918     10904     10919     10920     10904     10919     10921
     10904     10919     10925     10920     10919     10921     10920     10919     10925
     10921     10919     10925     10923     10922     10924     10923     10922     10925
     10923     10922     10926     10924     10922     10925     10924     10922     10926
     10925     10922     10926     10919     10925     10922     10922     10926     10927
     10926     10927     10928     10926     10927     10929     10926     10927     10930
     10928     10927     10929     10928     10927     10930     10929     10927     10930
     10927     10930     10931     10927     10930     10932     10927     10930     10938
     10931     10930     10932     10931     10930     10938     10932     10930     10938
     10930     10932     10933     10932     10933     10934     10932     10933     10935
     10934     10933     10935     10933     10935     10936     10933     10935     10937
     10933     10935     10947     10936     10935     10937     10936     10935     10947
     10937     10935     10947     10930     10938     10939     10930     10938     10940
     10930     10938     10941     10939     10938     10940     10939     10938     10941
     10940     10938     10941     10938     10941     10942     10941     10942     10943
     10941     10942     10944     10943     10942     10944     10942     10944     10945
     10942     10944     10946     10942     10944     10994     10945     10944     10946
     10945     10944     10994     10946     10944     10994     10935     10947     10948
     10935     10947     10949     10935     10947     10950     10948     10947     10949
     10948     10947     10950     10949     10947     10950     10947     10950     10951
     10947     10950     10952     10947     10950     10953     10951     10950     10952
     10951     10950     10953     10952     10950     10953     10950     10953     10954
     10950     10953     10955     10950     10953     10956     10954     10953     10955
     10954     10953     10956     10955     10953     10956     10953     10956     10957
     10953     10956     10958     10953     10956     10959     10957     10956     10958
     10957     10956     10959     10958     10956     10959     10956     10959     10960
     10956     10959     10961     10956     10959     10962     10960     10959     10961
     10960     10959     10962     10961     10959     10962     10959     10962     10963
     10959     10962     10964     10959     10962     10965     10963     10962     10964
     10963     10962     10965     10964     10962     10965     10962     10965     10966
     10962     10965     10967     10966     10965     10967     10965     10967     10968
     10965     10967     10969     10968     10967     10969     10967     10969     10970
     10967     10969     10971     10967     10969     10972     10970     10969     10971
     10970     10969     10972     10971     10969     10972     10969     10972     10973
     10969     10972     10974     10969     10972     10975     10973     10972     10974
     10973     10972     10975     10974     10972     10975     10972     10975     10976
     10972     10975     10977     10972     10975     10978     10976     10975     10977
     10976     10975     10978     10977     10975     10978     10975     10978     10979
     10975     10978     10980     10975     10978     10981     10979     10978     10980
     10979     10978     10981     10980     10978     10981     10978     10981     10982
     10978     10981     10983     10978     10981     10984     10982     10981     10983
     10982     10981     10984     10983     10981     10984     10981     10984     10985
     10981     10984     10986     10981     10984     10987     10985     10984     10986
     10985     10984     10987     10986     10984     10987     10984     10987     10988
     10984     10987     10989     10984     10987     10990     10988     10987     10989
     10988     10987     10990     10989     10987     10990     10987     10990     10991
     10987     10990     10992     10987     10990     10993     10991     10990     10992
     10991     10990     10993     10992     10990     10993     10944     10994     10995
     10944     10994     10996     10944     10994     10997     10995     10994     10996
     10995     10994     10997     10996     10994     10997     10994     10997     10998
     10994     10997     10999     10994     10997     11000     10998     10997     10999
     10998     10997     11000     10999     10997     11000     10997     11000     11001
     10997     11000     11002     10997     11000     11003     11001     11000     11002
     11001     11000     11003     11002     11000     11003     11000     11003     11004
     11000     11003     11005     11000     11003     11006     11004     11003     11005
     11004     11003     11006     11005     11003     11006     11003     11006     11007
     11003     11006     11008     11003     11006     11009     11007     11006     11008
     11007     11006     11009     11008     11006     11009     11006     11009     11010
     11006     11009     11011     11006     11009     11012     11010     11009     11011
     11010     11009     11012     11011     11009     11012     11009     11012     11013
     11009     11012     11014     11013     11012     11014     11012     11014     11015
     11012     11014     11016     11015     11014     11016     11014     11016     11017
     11014     11016     11018     11014     11016     11019     11017     11016     11018
     11017     11016     11019     11018     11016     11019     11016     11019     11020
     11016     11019     11021     11016     11019     11022     11020     11019     11021
     11020     11019     11022     11021     11019     11022     11019     11022     11023
     11019     11022     11024     11019     11022     11025     11023     11022     11024
     11023     11022     11025     11024     11022     11025     11022     11025     11026
     11022     11025     11027     11022     11025     11028     11026     11025     11027
     11026     11025     11028     11027     11025     11028     11025     11028     11029
     11025     11028     11030     11025     11028     11031     11029     11028     11030
     11029     11028     11031     11030     11028     11031     11028     11031     11032
     11028     11031     11033     11028     11031     11034     11032     11031     11033
     11032     11031     11034     11033     11031     11034     11031     11034     11035
     11031     11034     11036     11031     11034     11037     11035     11034     11036
     11035     11034     11037     11036     11034     11037     11034     11037     11038
     11034     11037     11039     11034     11037     11040     11038     11037     11039
     11038     11037     11040     11039     11037     11040     11042     11041     11045
     11042     11041     11049     11042     11041     11053     11045     11041     11049
     11045     11041     11053     11049     11041     11053     11041     11042     11043
     11041     11042     11044     11041     11042     11057     11043     11042     11044
     11043     11042     11057     11044     11042     11057     11041     11045     11046
     11041     11045     11047     11041     11045     11048     11046     11045     11047
     11046     11045     11048     11047     11045     11048     11041     11049     11050
     11041     11049     11051     11041     11049     11052     11050     11049     11051
     11050     11049     11052     11051     11049     11052     11041     11053     11054
     11041     11053     11055     11041     11053     11056     11054     11053     11055
     11054     11053     11056     11055     11053     11056     11042     11057     11058
     11042     11057     11059     11042     11057     11063     11058     11057     11059
     11058     11057     11063     11059     11057     11063     11061     11060     11062
     11061     11060     11063     11061     11060     11064     11062     11060     11063
     11062     11060     11064     11063     11060     11064     11057     11063     11060
     11060     11064     11065     11064     11065     11066     11064     11065     11067
     11064     11065     11068     11066     11065     11067     11066     11065     11068
     11067     11065     11068     11065     11068     11069     11065     11068     11070
     11065     11068     11076     11069     11068     11070     11069     11068     11076
     11070     11068     11076     11068     11070     11071     11070     11071     11072
     11070     11071     11073     11072     11071     11073     11071     11073     11074
     11071     11073     11075     11071     11073     11085     11074     11073     11075
     11074     11073     11085     11075     11073     11085     11068     11076     11077
     11068     11076     11078     11068     11076     11079     11077     11076     11078
     11077     11076     11079     11078     11076     11079     11076     11079     11080
     11079     11080     11081     11079     11080     11082     11081     11080     11082
     11080     11082     11083     11080     11082     11084     11080     11082     11132
     11083     11082     11084     11083     11082     11132     11084     11082     11132
     11073     11085     11086     11073     11085     11087     11073     11085     11088
     11086     11085     11087     11086     11085     11088     11087     11085     11088
     11085     11088     11089     11085     11088     11090     11085     11088     11091
     11089     11088     11090     11089     11088     11091     11090     11088     11091
     11088     11091     11092     11088     11091     11093     11088     11091     11094
     11092     11091     11093     11092     11091     11094     11093     11091     11094
     11091     11094     11095     11091     11094     11096     11091     11094     11097
     11095     11094     11096     11095     11094     11097     11096     11094     11097
     11094     11097     11098     11094     11097     11099     11094     11097     11100
     11098     11097     11099     11098     11097     11100     11099     11097     11100
     11097     11100     11101     11097     11100     11102     11097     11100     11103
     11101     11100     11102     11101     11100     11103     11102     11100     11103
     11100     11103     11104     11100     11103     11105     11104     11103     11105
     11103     11105     11106     11103     11105     11107     11106     11105     11107
     11105     11107     11108     11105     11107     11109     11105     11107     11110
     11108     11107     11109     11108     11107     11110     11109     11107     11110
     11107     11110     11111     11107     11110     11112     11107     11110     11113
     11111     11110     11112     11111     11110     11113     11112     11110     11113
     11110     11113     11114     11110     11113     11115     11110     11113     11116
     11114     11113     11115     11114     11113     11116     11115     11113     11116
     11113     11116     11117     11113     11116     11118     11113     11116     11119
     11117     11116     11118     11117     11116     11119     11118     11116     11119
     11116     11119     11120     11116     11119     11121     11116     11119     11122
     11120     11119     11121     11120     11119     11122     11121     11119     11122
     11119     11122     11123     11119     11122     11124     11119     11122     11125
     11123     11122     11124     11123     11122     11125     11124     11122     11125
     11122     11125     11126     11122     11125     11127     11122     11125     11128
     11126     11125     11127     11126     11125     11128     11127     11125     11128
     11125     11128     11129     11125     11128     11130     11125     11128     11131
     11129     11128     11130     11129     11128     11131     11130     11128     11131
     11082     11132     11133     11082     11132     11134     11082     11132     11135
     11133     11132     11134     11133     11132     11135     11134     11132     11135
     11132     11135     11136     11132     11135     11137     11132     11135     11138
     11136     11135     11137     11136     11135     11138     11137     11135     11138
     11135     11138     11139     11135     11138     11140     11135     11138     11141
     11139     11138     11140     11139     11138     11141     11140     11138     11141
     11138     11141     11142     11138     11141     11143     11138     11141     11144
     11142     11141     11143     11142     11141     11144     11143     11141     11144
     11141     11144     11145     11141     11144     11146     11141     11144     11147
     11145     11144     11146     11145     11144     11147     11146     11144     11147
     11144     11147     11148     11144     11147     11149     11144     11147     11150
     11148     11147     11149     11148     11147     11150     11149     11147     11150
     11147     11150     11151     11147     11150     11152     11151     11150     11152
     11150     11152     11153     11150     11152     11154     11153     11152     11154
     11152     11154     11155     11152     11154     11156     11152     11154     11157
     11155     11154     11156     11155     11154     11157     11156     11154     11157
     11154     11157     11158     11154     11157     11159     11154     11157     11160
     11158     11157     11159     11158     11157     11160     11159     11157     11160
     11157     11160     11161     11157     11160     11162     11157     11160     11163
     11161     11160     11162     11161     11160     11163     11162     11160     11163
     11160     11163     11164     11160     11163     11165     11160     11163     11166
     11164     11163     11165     11164     11163     11166     11165     11163     11166
     11163     11166     11167     11163     11166     11168     11163     11166     11169
     11167     11166     11168     11167     11166     11169     11168     11166     11169
     11166     11169     11170     11166     11169     11171     11166     11169     11172
     11170     11169     11171     11170     11169     11172     11171     11169     11172
     11169     11172     11173     11169     11172     11174     11169     11172     11175
     11173     11172     11174     11173     11172     11175     11174     11172     11175
     11172     11175     11176     11172     11175     11177     11172     11175     11178
     11176     11175     11177     11176     11175     11178     11177     11175     11178
     11180     11179     11183     11180     11179     11187     11180     11179     11191
     11183     11179     11187     11183     11179     11191     11187     11179     11191
     11179     11180     11181     11179     11180     11182     11179     11180     11195
     11181     11180     11182     11181     11180     11195     11182     11180     11195
     11179     11183     11184     11179     11183     11185     11179     11183     11186
     11184     11183     11185     11184     11183     11186     11185     11183     11186
     11179     11187     11188     11179     11187     11189     11179     11187     11190
     11188     11187     11189     11188     11187     11190     11189     11187     11190
     11179     11191     11192     11179     11191     11193     11179     11191     11194
     11192     11191     11193     11192     11191     11194     11193     11191     11194
     11180     11195     11196     11180     11195     11197     11180     11195     11201
     11196     11195     11197     11196     11195     11201     11197     11195     11201
     11199     11198     11200     11199     11198     11201     11199     11198     11202
     11200     11198     11201     11200     11198     11202     11201     11198     11202
     11195     11201     11198     11198     11202     11203     11202     11203     11204
     11202     11203     11205     11202     11203     11206     11204     11203     11205
     11204     11203     11206     11205     11203     11206     11203     11206     11207
     11203     11206     11208     11203     11206     11214     11207     11206     11208
     11207     11206     11214     11208     11206     11214     11206     11208     11209
     11208     11209     11210     11208     11209     11211     11210     11209     11211
     11209     11211     11212     11209     11211     11213     11209     11211     11223
     11212     11211     11213     11212     11211     11223     11213     11211     11223
     11206     11214     11215     11206     11214     11216     11206     11214     11217
     11215     11214     11216     11215     11214     11217     11216     11214     11217
     11214     11217     11218     11217     11218     11219     11217     11218     11220
     11219     11218     11220     11218     11220     11221     11218     11220     11222
     11218     11220     11270     11221     11220     11222     11221     11220     11270
     11222     11220     11270     11211     11223     11224     11211     11223     11225
     11211     11223     11226     11224     11223     11225     11224     11223     11226
     11225     11223     11226     11223     11226     11227     11223     11226     11228
     11223     11226     11229     11227     11226     11228     11227     11226     11229
     11228     11226     11229     11226     11229     11230     11226     11229     11231
     11226     11229     11232     11230     11229     11231     11230     11229     11232
     11231     11229     11232     11229     11232     11233     11229     11232     11234
     11229     11232     11235     11233     11232     11234     11233     11232     11235
     11234     11232     11235     11232     11235     11236     11232     11235     11237
     11232     11235     11238     11236     11235     11237     11236     11235     11238
     11237     11235     11238     11235     11238     11239     11235     11238     11240
     11235     11238     11241     11239     11238     11240     11239     11238     11241
     11240     11238     11241     11238     11241     11242     11238     11241     11243
     11242     11241     11243     11241     11243     11244     11241     11243     11245
     11244     11243     11245     11243     11245     11246     11243     11245     11247
     11243     11245     11248     11246     11245     11247     11246     11245     11248
     11247     11245     11248     11245     11248     11249     11245     11248     11250
     11245     11248     11251     11249     11248     11250     11249     11248     11251
     11250     11248     11251     11248     11251     11252     11248     11251     11253
     11248     11251     11254     11252     11251     11253     11252     11251     11254
     11253     11251     11254     11251     11254     11255     11251     11254     11256
     11251     11254     11257     11255     11254     11256     11255     11254     11257
     11256     11254     11257     11254     11257     11258     11254     11257     11259
     11254     11257     11260     11258     11257     11259     11258     11257     11260
     11259     11257     11260     11257     11260     11261     11257     11260     11262
     11257     11260     11263     11261     11260     11262     11261     11260     11263
     11262     11260     11263     11260     11263     11264     11260     11263     11265
     11260     11263     11266     11264     11263     11265     11264     11263     11266
     11265     11263     11266     11263     11266     11267     11263     11266     11268
     11263     11266     11269     11267     11266     11268     11267     11266     11269
     11268     11266     11269     11220     11270     11271     11220     11270     11272
     11220     11270     11273     11271     11270     11272     11271     11270     11273
     11272     11270     11273     11270     11273     11274     11270     11273     11275
     11270     11273     11276     11274     11273     11275     11274     11273     11276
     11275     11273     11276     11273     11276     11277     11273     11276     11278
     11273     11276     11279     11277     11276     11278     11277     11276     11279
     11278     11276     11279     11276     11279     11280     11276     11279     11281
     11276     11279     11282     11280     11279     11281     11280     11279     11282
     11281     11279     11282     11279     11282     11283     11279     11282     11284
     11279     11282     11285     11283     11282     11284     11283     11282     11285
     11284     11282     11285     11282     11285     11286     11282     11285     11287
     11282     11285     11288     11286     11285     11287     11286     11285     11288
     11287     11285     11288     11285     11288     11289     11285     11288     11290
     11289     11288     11290     11288     11290     11291     11288     11290     11292
     11291     11290     11292     11290     11292     11293     11290     11292     11294
     11290     11292     11295     11293     11292     11294     11293     11292     11295
     11294     11292     11295     11292     11295     11296     11292     11295     11297
     11292     11295     11298     11296     11295     11297     11296     11295     11298
     11297     11295     11298     11295     11298     11299     11295     11298     11300
     11295     11298     11301     11299     11298     11300     11299     11298     11301
     11300     11298     11301     11298     11301     11302     11298     11301     11303
     11298     11301     11304     11302     11301     11303     11302     11301     11304
     11303     11301     11304     11301     11304     11305     11301     11304     11306
     11301     11304     11307     11305     11304     11306     11305     11304     11307
     11306     11304     11307     11304     11307     11308     11304     11307     11309
     11304     11307     11310     11308     11307     11309     11308     11307     11310
     11309     11307     11310     11307     11310     11311     11307     11310     11312
     11307     11310     11313     11311     11310     11312     11311     11310     11313
     11312     11310     11313     11310     11313     11314     11310     11313     11315
     11310     11313     11316     11314     11313     11315     11314     11313     11316
     11315     11313     11316     11318     11317     11321     11318     11317     11325
     11318     11317     11329     11321     11317     11325     11321     11317     11329
     11325     11317     11329     11317     11318     11319     11317     11318     11320
     11317     11318     11333     11319     11318     11320     11319     11318     11333
     11320     11318     11333     11317     11321     11322     11317     11321     11323
     11317     11321     11324     11322     11321     11323     11322     11321     11324
     11323     11321     11324     11317     11325     11326     11317     11325     11327
     11317     11325     11328     11326     11325     11327     11326     11325     11328
     11327     11325     11328     11317     11329     11330     11317     11329     11331
     11317     11329     11332     11330     11329     11331     11330     11329     11332
     11331     11329     11332     11318     11333     11334     11318     11333     11335
     11318     11333     11339     11334     11333     11335     11334     11333     11339
     11335     11333     11339     11337     11336     11338     11337     11336     11339
     11337     11336     11340     11338     11336     11339     11338     11336     11340
     11339     11336     11340     11333     11339     11336     11336     11340     11341
     11340     11341     11342     11340     11341     11343     11340     11341     11344
     11342     11341     11343     11342     11341     11344     11343     11341     11344
     11341     11344     11345     11341     11344     11346     11341     11344     11352
     11345     11344     11346     11345     11344     11352     11346     11344     11352
     11344     11346     11347     11346     11347     11348     11346     11347     11349
     11348     11347     11349     11347     11349     11350     11347     11349     11351
     11347     11349     11361     11350     11349     11351     11350     11349     11361
     11351     11349     11361     11344     11352     11353     11344     11352     11354
     11344     11352     11355     11353     11352     11354     11353     11352     11355
     11354     11352     11355     11352     11355     11356     11355     11356     11357
     11355     11356     11358     11357     11356     11358     11356     11358     11359
     11356     11358     11360     11356     11358     11408     11359     11358     11360
     11359     11358     11408     11360     11358     11408     11349     11361     11362
     11349     11361     11363     11349     11361     11364     11362     11361     11363
     11362     11361     11364     11363     11361     11364     11361     11364     11365
     11361     11364     11366     11361     11364     11367     11365     11364     11366
     11365     11364     11367     11366     11364     11367     11364     11367     11368
     11364     11367     11369     11364     11367     11370     11368     11367     11369
     11368     11367     11370     11369     11367     11370     11367     11370     11371
     11367     11370     11372     11367     11370     11373     11371     11370     11372
     11371     11370     11373     11372     11370     11373     11370     11373     11374
     11370     11373     11375     11370     11373     11376     11374     11373     11375
     11374     11373     11376     11375     11373     11376     11373     11376     11377
     11373     11376     11378     11373     11376     11379     11377     11376     11378
     11377     11376     11379     11378     11376     11379     11376     11379     11380
     11376     11379     11381     11380     11379     11381     11379     11381     11382
     11379     11381     11383     11382     11381     11383     11381     11383     11384
     11381     11383     11385     11381     11383     11386     11384     11383     11385
     11384     11383     11386     11385     11383     11386     11383     11386     11387
     11383     11386     11388     11383     11386     11389     11387     11386     11388
     11387     11386     11389     11388     11386     11389     11386     11389     11390
     11386     11389     11391     11386     11389     11392     11390     11389     11391
     11390     11389     11392     11391     11389     11392     11389     11392     11393
     11389     11392     11394     11389     11392     11395     11393     11392     11394
     11393     11392     11395     11394     11392     11395     11392     11395     11396
     11392     11395     11397     11392     11395     11398     11396     11395     11397
     11396     11395     11398     11397     11395     11398     11395     11398     11399
     11395     11398     11400     11395     11398     11401     11399     11398     11400
     11399     11398     11401     11400     11398     11401     11398     11401     11402
     11398     11401     11403     11398     11401     11404     11402     11401     11403
     11402     11401     11404     11403     11401     11404     11401     11404     11405
     11401     11404     11406     11401     11404     11407     11405     11404     11406
     11405     11404     11407     11406     11404     11407     11358     11408     11409
     11358     11408     11410     11358     11408     11411     11409     11408     11410
     11409     11408     11411     11410     11408     11411     11408     11411     11412
     11408     11411     11413     11408     11411     11414     11412     11411     11413
     11412     11411     11414     11413     11411     11414     11411     11414     11415
     11411     11414     11416     11411     11414     11417     11415     11414     11416
     11415     11414     11417     11416     11414     11417     11414     11417     11418
     11414     11417     11419     11414     11417     11420     11418     11417     11419
     11418     11417     11420     11419     11417     11420     11417     11420     11421
     11417     11420     11422     11417     11420     11423     11421     11420     11422
     11421     11420     11423     11422     11420     11423     11420     11423     11424
     11420     11423     11425     11420     11423     11426     11424     11423     11425
     11424     11423     11426     11425     11423     11426     11423     11426     11427
     11423     11426     11428     11427     11426     11428     11426     11428     11429
     11426     11428     11430     11429     11428     11430     11428     11430     11431
     11428     11430     11432     11428     11430     11433     11431     11430     11432
     11431     11430     11433     11432     11430     11433     11430     11433     11434
     11430     11433     11435     11430     11433     11436     11434     11433     11435
     11434     11433     11436     11435     11433     11436     11433     11436     11437
     11433     11436     11438     11433     11436     11439     11437     11436     11438
     11437     11436     11439     11438     11436     11439     11436     11439     11440
     11436     11439     11441     11436     11439     11442     11440     11439     11441
     11440     11439     11442     11441     11439     11442     11439     11442     11443
     11439     11442     11444     11439     11442     11445     11443     11442     11444
     11443     11442     11445     11444     11442     11445     11442     11445     11446
     11442     11445     11447     11442     11445     11448     11446     11445     11447
     11446     11445     11448     11447     11445     11448     11445     11448     11449
     11445     11448     11450     11445     11448     11451     11449     11448     11450
     11449     11448     11451     11450     11448     11451     11448     11451     11452
     11448     11451     11453     11448     11451     11454     11452     11451     11453
     11452     11451     11454     11453     11451     11454     11456     11455     11459
     11456     11455     11463     11456     11455     11467     11459     11455     11463
     11459     11455     11467     11463     11455     11467     11455     11456     11457
     11455     11456     11458     11455     11456     11471     11457     11456     11458
     11457     11456     11471     11458     11456     11471     11455     11459     11460
     11455     11459     11461     11455     11459     11462     11460     11459     11461
     11460     11459     11462     11461     11459     11462     11455     11463     11464
     11455     11463     11465     11455     11463     11466     11464     11463     11465
     11464     11463     11466     11465     11463     11466     11455     11467     11468
     11455     11467     11469     11455     11467     11470     11468     11467     11469
     11468     11467     11470     11469     11467     11470     11456     11471     11472
     11456     11471     11473     11456     11471     11477     11472     11471     11473
     11472     11471     11477     11473     11471     11477     11475     11474     11476
     11475     11474     11477     11475     11474     11478     11476     11474     11477
     11476     11474     11478     11477     11474     11478     11471     11477     11474
     11474     11478     11479     11478     11479     11480     11478     11479     11481
     11478     11479     11482     11480     11479     11481     11480     11479     11482
     11481     11479     11482     11479     11482     11483     11479     11482     11484
     11479     11482     11490     11483     11482     11484     11483     11482     11490
     11484     11482     11490     11482     11484     11485     11484     11485     11486
     11484     11485     11487     11486     11485     11487     11485     11487     11488
     11485     11487     11489     11485     11487     11499     11488     11487     11489
     11488     11487     11499     11489     11487     11499     11482     11490     11491
     11482     11490     11492     11482     11490     11493     11491     11490     11492
     11491     11490     11493     11492     11490     11493     11490     11493     11494
     11493     11494     11495     11493     11494     11496     11495     11494     11496
     11494     11496     11497     11494     11496     11498     11494     11496     11546
     11497     11496     11498     11497     11496     11546     11498     11496     11546
     11487     11499     11500     11487     11499     11501     11487     11499     11502
     11500     11499     11501     11500     11499     11502     11501     11499     11502
     11499     11502     11503     11499     11502     11504     11499     11502     11505
     11503     11502     11504     11503     11502     11505     11504     11502     11505
     11502     11505     11506     11502     11505     11507     11502     11505     11508
     11506     11505     11507     11506     11505     11508     11507     11505     11508
     11505     11508     11509     11505     11508     11510     11505     11508     11511
     11509     11508     11510     11509     11508     11511     11510     11508     11511
     11508     11511     11512     11508     11511     11513     11508     11511     11514
     11512     11511     11513     11512     11511     11514     11513     11511     11514
     11511     11514     11515     11511     11514     11516     11511     11514     11517
     11515     11514     11516     11515     11514     11517     11516     11514     11517
     11514     11517     11518     11514     11517     11519     11518     11517     11519
     11517     11519     11520     11517     11519     11521     11520     11519     11521
     11519     11521     11522     11519     11521     11523     11519     11521     11524
     11522     11521     11523     11522     11521     11524     11523     11521     11524
     11521     11524     11525     11521     11524     11526     11521     11524     11527
     11525     11524     11526     11525     11524     11527     11526     11524     11527
     11524     11527     11528     11524     11527     11529     11524     11527     11530
     11528     11527     11529     11528     11527     11530     11529     11527     11530
     11527     11530     11531     11527     11530     11532     11527     11530     11533
     11531     11530     11532     11531     11530     11533     11532     11530     11533
     11530     11533     11534     11530     11533     11535     11530     11533     11536
     11534     11533     11535     11534     11533     11536     11535     11533     11536
     11533     11536     11537     11533     11536     11538     11533     11536     11539
     11537     11536     11538     11537     11536     11539     11538     11536     11539
     11536     11539     11540     11536     11539     11541     11536     11539     11542
     11540     11539     11541     11540     11539     11542     11541     11539     11542
     11539     11542     11543     11539     11542     11544     11539     11542     11545
     11543     11542     11544     11543     11542     11545     11544     11542     11545
     11496     11546     11547     11496     11546     11548     11496     11546     11549
     11547     11546     11548     11547     11546     11549     11548     11546     11549
     11546     11549     11550     11546     11549     11551     11546     11549     11552
     11550     11549     11551     11550     11549     11552     11551     11549     11552
     11549     11552     11553     11549     11552     11554     11549     11552     11555
     11553     11552     11554     11553     11552     11555     11554     11552     11555
     11552     11555     11556     11552     11555     11557     11552     11555     11558
     11556     11555     11557     11556     11555     11558     11557     11555     11558
     11555     11558     11559     11555     11558     11560     11555     11558     11561
     11559     11558     11560     11559     11558     11561     11560     11558     11561
     11558     11561     11562     11558     11561     11563     11558     11561     11564
     11562     11561     11563     11562     11561     11564     11563     11561     11564
     11561     11564     11565     11561     11564     11566     11565     11564     11566
     11564     11566     11567     11564     11566     11568     11567     11566     11568
     11566     11568     11569     11566     11568     11570     11566     11568     11571
     11569     11568     11570     11569     11568     11571     11570     11568     11571
     11568     11571     11572     11568     11571     11573     11568     11571     11574
     11572     11571     11573     11572     11571     11574     11573     11571     11574
     11571     11574     11575     11571     11574     11576     11571     11574     11577
     11575     11574     11576     11575     11574     11577     11576     11574     11577
     11574     11577     11578     11574     11577     11579     11574     11577     11580
     11578     11577     11579     11578     11577     11580     11579     11577     11580
     11577     11580     11581     11577     11580     11582     11577     11580     11583
     11581     11580     11582     11581     11580     11583     11582     11580     11583
     11580     11583     11584     11580     11583     11585     11580     11583     11586
     11584     11583     11585     11584     11583     11586     11585     11583     11586
     11583     11586     11587     11583     11586     11588     11583     11586     11589
     11587     11586     11588     11587     11586     11589     11588     11586     11589
     11586     11589     11590     11586     11589     11591     11586     11589     11592
     11590     11589     11591     11590     11589     11592     11591     11589     11592
     11594     11593     11597     11594     11593     11601     11594     11593     11605
     11597     11593     11601     11597     11593     11605     11601     11593     11605
     11593     11594     11595     11593     11594     11596     11593     11594     11609
     11595     11594     11596     11595     11594     11609     11596     11594     11609
     11593     11597     11598     11593     11597     11599     11593     11597     11600
     11598     11597     11599     11598     11597     11600     11599     11597     11600
     11593     11601     11602     11593     11601     11603     11593     11601     11604
     11602     11601     11603     11602     11601     11604     11603     11601     11604
     11593     11605     11606     11593     11605     11607     11593     11605     11608
     11606     11605     11607     11606     11605     11608     11607     11605     11608
     11594     11609     11610     11594     11609     11611     11594     11609     11615
     11610     11609     11611     11610     11609     11615     11611     11609     11615
     11613     11612     11614     11613     11612     11615     11613     11612     11616
     11614     11612     11615     11614     11612     11616     11615     11612     11616
     11609     11615     11612     11612     11616     11617     11616     11617     11618
     11616     11617     11619     11616     11617     11620     11618     11617     11619
     11618     11617     11620     11619     11617     11620     11617     11620     11621
     11617     11620     11622     11617     11620     11628     11621     11620     11622
     11621     11620     11628     11622     11620     11628     11620     11622     11623
     11622     11623     11624     11622     11623     11625     11624     11623     11625
     11623     11625     11626     11623     11625     11627     11623     11625     11637
     11626     11625     11627     11626     11625     11637     11627     11625     11637
     11620     11628     11629     11620     11628     11630     11620     11628     11631
     11629     11628     11630     11629     11628     11631     11630     11628     11631
     11628     11631     11632     11631     11632     11633     11631     11632     11634
     11633     11632     11634     11632     11634     11635     11632     11634     11636
     11632     11634     11684     11635     11634     11636     11635     11634     11684
     11636     11634     11684     11625     11637     11638     11625     11637     11639
     11625     11637     11640     11638     11637     11639     11638     11637     11640
     11639     11637     11640     11637     11640     11641     11637     11640     11642
     11637     11640     11643     11641     11640     11642     11641     11640     11643
     11642     11640     11643     11640     11643     11644     11640     11643     11645
     11640     11643     11646     11644     11643     11645     11644     11643     11646
     11645     11643     11646     11643     11646     11647     11643     11646     11648
     11643     11646     11649     11647     11646     11648     11647     11646     11649
     11648     11646     11649     11646     11649     11650     11646     11649     11651
     11646     11649     11652     11650     11649     11651     11650     11649     11652
     11651     11649     11652     11649     11652     11653     11649     11652     11654
     11649     11652     11655     11653     11652     11654     11653     11652     11655
     11654     11652     11655     11652     11655     11656     11652     11655     11657
     11656     11655     11657     11655     11657     11658     11655     11657     11659
     11658     11657     11659     11657     11659     11660     11657     11659     11661
     11657     11659     11662     11660     11659     11661     11660     11659     11662
     11661     11659     11662     11659     11662     11663     11659     11662     11664
     11659     11662     11665     11663     11662     11664     11663     11662     11665
     11664     11662     11665     11662     11665     11666     11662     11665     11667
     11662     11665     11668     11666     11665     11667     11666     11665     11668
     11667     11665     11668     11665     11668     11669     11665     11668     11670
     11665     11668     11671     11669     11668     11670     11669     11668     11671
     11670     11668     11671     11668     11671     11672     11668     11671     11673
     11668     11671     11674     11672     11671     11673     11672     11671     11674
     11673     11671     11674     11671     11674     11675     11671     11674     11676
     11671     11674     11677     11675     11674     11676     11675     11674     11677
     11676     11674     11677     11674     11677     11678     11674     11677     11679
     11674     11677     11680     11678     11677     11679     11678     11677     11680
     11679     11677     11680     11677     11680     11681     11677     11680     11682
     11677     11680     11683     11681     11680     11682     11681     11680     11683
     11682     11680     11683     11634     11684     11685     11634     11684     11686
     11634     11684     11687     11685     11684     11686     11685     11684     11687
     11686     11684     11687     11684     11687     11688     11684     11687     11689
     11684     11687     11690     11688     11687     11689     11688     11687     11690
     11689     11687     11690     11687     11690     11691     11687     11690     11692
     11687     11690     11693     11691     11690     11692     11691     11690     11693
     11692     11690     11693     11690     11693     11694     11690     11693     11695
     11690     11693     11696     11694     11693     11695     11694     11693     11696
     11695     11693     11696     11693     11696     11697     11693     11696     11698
     11693     11696     11699     11697     11696     11698     11697     11696     11699
     11698     11696     11699     11696     11699     11700     11696     11699     11701
     11696     11699     11702     11700     11699     11701     11700     11699     11702
     11701     11699     11702     11699     11702     11703     11699     11702     11704
     11703     11702     11704     11702     11704     11705     11702     11704     11706
     11705     11704     11706     11704     11706     11707     11704     11706     11708
     11704     11706     11709     11707     11706     11708     11707     11706     11709
     11708     11706     11709     11706     11709     11710     11706     11709     11711
     11706     11709     11712     11710     11709     11711     11710     11709     11712
     11711     11709     11712     11709     11712     11713     11709     11712     11714
     11709     11712     11715     11713     11712     11714     11713     11712     11715
     11714     11712     11715     11712     11715     11716     11712     11715     11717
     11712     11715     11718     11716     11715     11717     11716     11715     11718
     11717     11715     11718     11715     11718     11719     11715     11718     11720
     11715     11718     11721     11719     11718     11720     11719     11718     11721
     11720     11718     11721     11718     11721     11722     11718     11721     11723
     11718     11721     11724     11722     11721     11723     11722     11721     11724
     11723     11721     11724     11721     11724     11725     11721     11724     11726
     11721     11724     11727     11725     11724     11726     11725     11724     11727
     11726     11724     11727     11724     11727     11728     11724     11727     11729
     11724     11727     11730     11728     11727     11729     11728     11727     11730
     11729     11727     11730     11732     11731     11735     11732     11731     11739
     11732     11731     11743     11735     11731     11739     11735     11731     11743
     11739     11731     11743     11731     11732     11733     11731     11732     11734
     11731     11732     11747     11733     11732     11734     11733     11732     11747
     11734     11732     11747     11731     11735     11736     11731     11735     11737
     11731     11735     11738     11736     11735     11737     11736     11735     11738
     11737     11735     11738     11731     11739     11740     11731     11739     11741
     11731     11739     11742     11740     11739     11741     11740     11739     11742
     11741     11739     11742     11731     11743     11744     11731     11743     11745
     11731     11743     11746     11744     11743     11745     11744     11743     11746
     11745     11743     11746     11732     11747     11748     11732     11747     11749
     11732     11747     11753     11748     11747     11749     11748     11747     11753
     11749     11747     11753     11751     11750     11752     11751     11750     11753
     11751     11750     11754     11752     11750     11753     11752     11750     11754
     11753     11750     11754     11747     11753     11750     11750     11754     11755
     11754     11755     11756     11754     11755     11757     11754     11755     11758
     11756     11755     11757     11756     11755     11758     11757     11755     11758
     11755     11758     11759     11755     11758     11760     11755     11758     11766
     11759     11758     11760     11759     11758     11766     11760     11758     11766
     11758     11760     11761     11760     11761     11762     11760     11761     11763
     11762     11761     11763     11761     11763     11764     11761     11763     11765
     11761     11763     11775     11764     11763     11765     11764     11763     11775
     11765     11763     11775     11758     11766     11767     11758     11766     11768
     11758     11766     11769     11767     11766     11768     11767     11766     11769
     11768     11766     11769     11766     11769     11770     11769     11770     11771
     11769     11770     11772     11771     11770     11772     11770     11772     11773
     11770     11772     11774     11770     11772     11822     11773     11772     11774
     11773     11772     11822     11774     11772     11822     11763     11775     11776
     11763     11775     11777     11763     11775     11778     11776     11775     11777
     11776     11775     11778     11777     11775     11778     11775     11778     11779
     11775     11778     11780     11775     11778     11781     11779     11778     11780
     11779     11778     11781     11780     11778     11781     11778     11781     11782
     11778     11781     11783     11778     11781     11784     11782     11781     11783
     11782     11781     11784     11783     11781     11784     11781     11784     11785
     11781     11784     11786     11781     11784     11787     11785     11784     11786
     11785     11784     11787     11786     11784     11787     11784     11787     11788
     11784     11787     11789     11784     11787     11790     11788     11787     11789
     11788     11787     11790     11789     11787     11790     11787     11790     11791
     11787     11790     11792     11787     11790     11793     11791     11790     11792
     11791     11790     11793     11792     11790     11793     11790     11793     11794
     11790     11793     11795     11794     11793     11795     11793     11795     11796
     11793     11795     11797     11796     11795     11797     11795     11797     11798
     11795     11797     11799     11795     11797     11800     11798     11797     11799
     11798     11797     11800     11799     11797     11800     11797     11800     11801
     11797     11800     11802     11797     11800     11803     11801     11800     11802
     11801     11800     11803     11802     11800     11803     11800     11803     11804
     11800     11803     11805     11800     11803     11806     11804     11803     11805
     11804     11803     11806     11805     11803     11806     11803     11806     11807
     11803     11806     11808     11803     11806     11809     11807     11806     11808
     11807     11806     11809     11808     11806     11809     11806     11809     11810
     11806     11809     11811     11806     11809     11812     11810     11809     11811
     11810     11809     11812     11811     11809     11812     11809     11812     11813
     11809     11812     11814     11809     11812     11815     11813     11812     11814
     11813     11812     11815     11814     11812     11815     11812     11815     11816
     11812     11815     11817     11812     11815     11818     11816     11815     11817
     11816     11815     11818     11817     11815     11818     11815     11818     11819
     11815     11818     11820     11815     11818     11821     11819     11818     11820
     11819     11818     11821     11820     11818     11821     11772     11822     11823
     11772     11822     11824     11772     11822     11825     11823     11822     11824
     11823     11822     11825     11824     11822     11825     11822     11825     11826
     11822     11825     11827     11822     11825     11828     11826     11825     11827
     11826     11825     11828     11827     11825     11828     11825     11828     11829
     11825     11828     11830     11825     11828     11831     11829     11828     11830
     11829     11828     11831     11830     11828     11831     11828     11831     11832
     11828     11831     11833     11828     11831     11834     11832     11831     11833
     11832     11831     11834     11833     11831     11834     11831     11834     11835
     11831     11834     11836     11831     11834     11837     11835     11834     11836
     11835     11834     11837     11836     11834     11837     11834     11837     11838
     11834     11837     11839     11834     11837     11840     11838     11837     11839
     11838     11837     11840     11839     11837     11840     11837     11840     11841
     11837     11840     11842     11841     11840     11842     11840     11842     11843
     11840     11842     11844     11843     11842     11844     11842     11844     11845
     11842     11844     11846     11842     11844     11847     11845     11844     11846
     11845     11844     11847     11846     11844     11847     11844     11847     11848
     11844     11847     11849     11844     11847     11850     11848     11847     11849
     11848     11847     11850     11849     11847     11850     11847     11850     11851
     11847     11850     11852     11847     11850     11853     11851     11850     11852
     11851     11850     11853     11852     11850     11853     11850     11853     11854
     11850     11853     11855     11850     11853     11856     11854     11853     11855
     11854     11853     11856     11855     11853     11856     11853     11856     11857
     11853     11856     11858     11853     11856     11859     11857     11856     11858
     11857     11856     11859     11858     11856     11859     11856     11859     11860
     11856     11859     11861     11856     11859     11862     11860     11859     11861
     11860     11859     11862     11861     11859     11862     11859     11862     11863
     11859     11862     11864     11859     11862     11865     11863     11862     11864
     11863     11862     11865     11864     11862     11865     11862     11865     11866
     11862     11865     11867     11862     11865     11868     11866     11865     11867
     11866     11865     11868     11867     11865     11868     11870     11869     11873
     11870     11869     11877     11870     11869     11881     11873     11869     11877
     11873     11869     11881     11877     11869     11881     11869     11870     11871
     11869     11870     11872     11869     11870     11885     11871     11870     11872
     11871     11870     11885     11872     11870     11885     11869     11873     11874
     11869     11873     11875     11869     11873     11876     11874     11873     11875
     11874     11873     11876     11875     11873     11876     11869     11877     11878
     11869     11877     11879     11869     11877     11880     11878     11877     11879
     11878     11877     11880     11879     11877     11880     11869     11881     11882
     11869     11881     11883     11869     11881     11884     11882     11881     11883
     11882     11881     11884     11883     11881     11884     11870     11885     11886
     11870     11885     11887     11870     11885     11891     11886     11885     11887
     11886     11885     11891     11887     11885     11891     11889     11888     11890
     11889     11888     11891     11889     11888     11892     11890     11888     11891
     11890     11888     11892     11891     11888     11892     11885     11891     11888
     11888     11892     11893     11892     11893     11894     11892     11893     11895
     11892     11893     11896     11894     11893     11895     11894     11893     11896
     11895     11893     11896     11893     11896     11897     11893     11896     11898
     11893     11896     11904     11897     11896     11898     11897     11896     11904
     11898     11896     11904     11896     11898     11899     11898     11899     11900
     11898     11899     11901     11900     11899     11901     11899     11901     11902
     11899     11901     11903     11899     11901     11913     11902     11901     11903
     11902     11901     11913     11903     11901     11913     11896     11904     11905
     11896     11904     11906     11896     11904     11907     11905     11904     11906
     11905     11904     11907     11906     11904     11907     11904     11907     11908
     11907     11908     11909     11907     11908     11910     11909     11908     11910
     11908     11910     11911     11908     11910     11912     11908     11910     11960
     11911     11910     11912     11911     11910     11960     11912     11910     11960
     11901     11913     11914     11901     11913     11915     11901     11913     11916
     11914     11913     11915     11914     11913     11916     11915     11913     11916
     11913     11916     11917     11913     11916     11918     11913     11916     11919
     11917     11916     11918     11917     11916     11919     11918     11916     11919
     11916     11919     11920     11916     11919     11921     11916     11919     11922
     11920     11919     11921     11920     11919     11922     11921     11919     11922
     11919     11922     11923     11919     11922     11924     11919     11922     11925
     11923     11922     11924     11923     11922     11925     11924     11922     11925
     11922     11925     11926     11922     11925     11927     11922     11925     11928
     11926     11925     11927     11926     11925     11928     11927     11925     11928
     11925     11928     11929     11925     11928     11930     11925     11928     11931
     11929     11928     11930     11929     11928     11931     11930     11928     11931
     11928     11931     11932     11928     11931     11933     11932     11931     11933
     11931     11933     11934     11931     11933     11935     11934     11933     11935
     11933     11935     11936     11933     11935     11937     11933     11935     11938
     11936     11935     11937     11936     11935     11938     11937     11935     11938
     11935     11938     11939     11935     11938     11940     11935     11938     11941
     11939     11938     11940     11939     11938     11941     11940     11938     11941
     11938     11941     11942     11938     11941     11943     11938     11941     11944
     11942     11941     11943     11942     11941     11944     11943     11941     11944
     11941     11944     11945     11941     11944     11946     11941     11944     11947
     11945     11944     11946     11945     11944     11947     11946     11944     11947
     11944     11947     11948     11944     11947     11949     11944     11947     11950
     11948     11947     11949     11948     11947     11950     11949     11947     11950
     11947     11950     11951     11947     11950     11952     11947     11950     11953
     11951     11950     11952     11951     11950     11953     11952     11950     11953
     11950     11953     11954     11950     11953     11955     11950     11953     11956
     11954     11953     11955     11954     11953     11956     11955     11953     11956
     11953     11956     11957     11953     11956     11958     11953     11956     11959
     11957     11956     11958     11957     11956     11959     11958     11956     11959
     11910     11960     11961     11910     11960     11962     11910     11960     11963
     11961     11960     11962     11961     11960     11963     11962     11960     11963
     11960     11963     11964     11960     11963     11965     11960     11963     11966
     11964     11963     11965     11964     11963     11966     11965     11963     11966
     11963     11966     11967     11963     11966     11968     11963     11966     11969
     11967     11966     11968     11967     11966     11969     11968     11966     11969
     11966     11969     11970     11966     11969     11971     11966     11969     11972
     11970     11969     11971     11970     11969     11972     11971     11969     11972
     11969     11972     11973     11969     11972     11974     11969     11972     11975
     11973     11972     11974     11973     11972     11975     11974     11972     11975
     11972     11975     11976     11972     11975     11977     11972     11975     11978
     11976     11975     11977     11976     11975     11978     11977     11975     11978
     11975     11978     11979     11975     11978     11980     11979     11978     11980
     11978     11980     11981     11978     11980     11982     11981     11980     11982
     11980     11982     11983     11980     11982     11984     11980     11982     11985
     11983     11982     11984     11983     11982     11985     11984     11982     11985
     11982     11985     11986     11982     11985     11987     11982     11985     11988
     11986     11985     11987     11986     11985     11988     11987     11985     11988
     11985     11988     11989     11985     11988     11990     11985     11988     11991
     11989     11988     11990     11989     11988     11991     11990     11988     11991
     11988     11991     11992     11988     11991     11993     11988     11991     11994
     11992     11991     11993     11992     11991     11994     11993     11991     11994
     11991     11994     11995     11991     11994     11996     11991     11994     11997
     11995     11994     11996     11995     11994     11997     11996     11994     11997
     11994     11997     11998     11994     11997     11999     11994     11997     12000
     11998     11997     11999     11998     11997     12000     11999     11997     12000
     11997     12000     12001     11997     12000     12002     11997     12000     12003
     12001     12000     12002     12001     12000     12003     12002     12000     12003
     12000     12003     12004     12000     12003     12005     12000     12003     12006
     12004     12003     12005     12004     12003     12006     12005     12003     12006
     12008     12007     12011     12008     12007     12015     12008     12007     12019
     12011     12007     12015     12011     12007     12019     12015     12007     12019
     12007     12008     12009     12007     12008     12010     12007     12008     12023
     12009     12008     12010     12009     12008     12023     12010     12008     12023
     12007     12011     12012     12007     12011     12013     12007     12011     12014
     12012     12011     12013     12012     12011     12014     12013     12011     12014
     12007     12015     12016     12007     12015     12017     12007     12015     12018
     12016     12015     12017     12016     12015     12018     12017     12015     12018
     12007     12019     12020     12007     12019     12021     12007     12019     12022
     12020     12019     12021     12020     12019     12022     12021     12019     12022
     12008     12023     12024     12008     12023     12025     12008     12023     12029
     12024     12023     12025     12024     12023     12029     12025     12023     12029
     12027     12026     12028     12027     12026     12029     12027     12026     12030
     12028     12026     12029     12028     12026     12030     12029     12026     12030
     12023     12029     12026     12026     12030     12031     12030     12031     12032
     12030     12031     12033     12030     12031     12034     12032     12031     12033
     12032     12031     12034     12033     12031     12034     12031     12034     12035
     12031     12034     12036     12031     12034     12042     12035     12034     12036
     12035     12034     12042     12036     12034     12042     12034     12036     12037
     12036     12037     12038     12036     12037     12039     12038     12037     12039
     12037     12039     12040     12037     12039     12041     12037     12039     12051
     12040     12039     12041     12040     12039     12051     12041     12039     12051
     12034     12042     12043     12034     12042     12044     12034     12042     12045
     12043     12042     12044     12043     12042     12045     12044     12042     12045
     12042     12045     12046     12045     12046     12047     12045     12046     12048
     12047     12046     12048     12046     12048     12049     12046     12048     12050
     12046     12048     12098     12049     12048     12050     12049     12048     12098
     12050     12048     12098     12039     12051     12052     12039     12051     12053
     12039     12051     12054     12052     12051     12053     12052     12051     12054
     12053     12051     12054     12051     12054     12055     12051     12054     12056
     12051     12054     12057     12055     12054     12056     12055     12054     12057
     12056     12054     12057     12054     12057     12058     12054     12057     12059
     12054     12057     12060     12058     12057     12059     12058     12057     12060
     12059     12057     12060     12057     12060     12061     12057     12060     12062
     12057     12060     12063     12061     12060     12062     12061     12060     12063
     12062     12060     12063     12060     12063     12064     12060     12063     12065
     12060     12063     12066     12064     12063     12065     12064     12063     12066
     12065     12063     12066     12063     12066     12067     12063     12066     12068
     12063     12066     12069     12067     12066     12068     12067     12066     12069
     12068     12066     12069     12066     12069     12070     12066     12069     12071
     12070     12069     12071     12069     12071     12072     12069     12071     12073
     12072     12071     12073     12071     12073     12074     12071     12073     12075
     12071     12073     12076     12074     12073     12075     12074     12073     12076
     12075     12073     12076     12073     12076     12077     12073     12076     12078
     12073     12076     12079     12077     12076     12078     12077     12076     12079
     12078     12076     12079     12076     12079     12080     12076     12079     12081
     12076     12079     12082     12080     12079     12081     12080     12079     12082
     12081     12079     12082     12079     12082     12083     12079     12082     12084
     12079     12082     12085     12083     12082     12084     12083     12082     12085
     12084     12082     12085     12082     12085     12086     12082     12085     12087
     12082     12085     12088     12086     12085     12087     12086     12085     12088
     12087     12085     12088     12085     12088     12089     12085     12088     12090
     12085     12088     12091     12089     12088     12090     12089     12088     12091
     12090     12088     12091     12088     12091     12092     12088     12091     12093
     12088     12091     12094     12092     12091     12093     12092     12091     12094
     12093     12091     12094     12091     12094     12095     12091     12094     12096
     12091     12094     12097     12095     12094     12096     12095     12094     12097
     12096     12094     12097     12048     12098     12099     12048     12098     12100
     12048     12098     12101     12099     12098     12100     12099     12098     12101
     12100     12098     12101     12098     12101     12102     12098     12101     12103
     12098     12101     12104     12102     12101     12103     12102     12101     12104
     12103     12101     12104     12101     12104     12105     12101     12104     12106
     12101     12104     12107     12105     12104     12106     12105     12104     12107
     12106     12104     12107     12104     12107     12108     12104     12107     12109
     12104     12107     12110     12108     12107     12109     12108     12107     12110
     12109     12107     12110     12107     12110     12111     12107     12110     12112
     12107     12110     12113     12111     12110     12112     12111     12110     12113
     12112     12110     12113     12110     12113     12114     12110     12113     12115
     12110     12113     12116     12114     12113     12115     12114     12113     12116
     12115     12113     12116     12113     12116     12117     12113     12116     12118
     12117     12116     12118     12116     12118     12119     12116     12118     12120
     12119     12118     12120     12118     12120     12121     12118     12120     12122
     12118     12120     12123     12121     12120     12122     12121     12120     12123
     12122     12120     12123     12120     12123     12124     12120     12123     12125
     12120     12123     12126     12124     12123     12125     12124     12123     12126
     12125     12123     12126     12123     12126     12127     12123     12126     12128
     12123     12126     12129     12127     12126     12128     12127     12126     12129
     12128     12126     12129     12126     12129     12130     12126     12129     12131
     12126     12129     12132     12130     12129     12131     12130     12129     12132
     12131     12129     12132     12129     12132     12133     12129     12132     12134
     12129     12132     12135     12133     12132     12134     12133     12132     12135
     12134     12132     12135     12132     12135     12136     12132     12135     12137
     12132     12135     12138     12136     12135     12137     12136     12135     12138
     12137     12135     12138     12135     12138     12139     12135     12138     12140
     12135     12138     12141     12139     12138     12140     12139     12138     12141
     12140     12138     12141     12138     12141     12142     12138     12141     12143
     12138     12141     12144     12142     12141     12143     12142     12141     12144
     12143     12141     12144     12146     12145     12149     12146     12145     12153
     12146     12145     12157     12149     12145     12153     12149     12145     12157
     12153     12145     12157     12145     12146     12147     12145     12146     12148
     12145     12146     12161     12147     12146     12148     12147     12146     12161
     12148     12146     12161     12145     12149     12150     12145     12149     12151
     12145     12149     12152     12150     12149     12151     12150     12149     12152
     12151     12149     12152     12145     12153     12154     12145     12153     12155
     12145     12153     12156     12154     12153     12155     12154     12153     12156
     12155     12153     12156     12145     12157     12158     12145     12157     12159
     12145     12157     12160     12158     12157     12159     12158     12157     12160
     12159     12157     12160     12146     12161     12162     12146     12161     12163
     12146     12161     12167     12162     12161     12163     12162     12161     12167
     12163     12161     12167     12165     12164     12166     12165     12164     12167
     12165     12164     12168     12166     12164     12167     12166     12164     12168
     12167     12164     12168     12161     12167     12164     12164     12168     12169
     12168     12169     12170     12168     12169     12171     12168     12169     12172
     12170     12169     12171     12170     12169     12172     12171     12169     12172
     12169     12172     12173     12169     12172     12174     12169     12172     12180
     12173     12172     12174     12173     12172     12180     12174     12172     12180
     12172     12174     12175     12174     12175     12176     12174     12175     12177
     12176     12175     12177     12175     12177     12178     12175     12177     12179
     12175     12177     12189     12178     12177     12179     12178     12177     12189
     12179     12177     12189     12172     12180     12181     12172     12180     12182
     12172     12180     12183     12181     12180     12182     12181     12180     12183
     12182     12180     12183     12180     12183     12184     12183     12184     12185
     12183     12184     12186     12185     12184     12186     12184     12186     12187
     12184     12186     12188     12184     12186     12236     12187     12186     12188
     12187     12186     12236     12188     12186     12236     12177     12189     12190
     12177     12189     12191     12177     12189     12192     12190     12189     12191
     12190     12189     12192     12191     12189     12192     12189     12192     12193
     12189     12192     12194     12189     12192     12195     12193     12192     12194
     12193     12192     12195     12194     12192     12195     12192     12195     12196
     12192     12195     12197     12192     12195     12198     12196     12195     12197
     12196     12195     12198     12197     12195     12198     12195     12198     12199
     12195     12198     12200     12195     12198     12201     12199     12198     12200
     12199     12198     12201     12200     12198     12201     12198     12201     12202
     12198     12201     12203     12198     12201     12204     12202     12201     12203
     12202     12201     12204     12203     12201     12204     12201     12204     12205
     12201     12204     12206     12201     12204     12207     12205     12204     12206
     12205     12204     12207     12206     12204     12207     12204     12207     12208
     12204     12207     12209     12208     12207     12209     12207     12209     12210
     12207     12209     12211     12210     12209     12211     12209     12211     12212
     12209     12211     12213     12209     12211     12214     12212     12211     12213
     12212     12211     12214     12213     12211     12214     12211     12214     12215
     12211     12214     12216     12211     12214     12217     12215     12214     12216
     12215     12214     12217     12216     12214     12217     12214     12217     12218
     12214     12217     12219     12214     12217     12220     12218     12217     12219
     12218     12217     12220     12219     12217     12220     12217     12220     12221
     12217     12220     12222     12217     12220     12223     12221     12220     12222
     12221     12220     12223     12222     12220     12223     12220     12223     12224
     12220     12223     12225     12220     12223     12226     12224     12223     12225
     12224     12223     12226     12225     12223     12226     12223     12226     12227
     12223     12226     12228     12223     12226     12229     12227     12226     12228
     12227     12226     12229     12228     12226     12229     12226     12229     12230
     12226     12229     12231     12226     12229     12232     12230     12229     12231
     12230     12229     12232     12231     12229     12232     12229     12232     12233
     12229     12232     12234     12229     12232     12235     12233     12232     12234
     12233     12232     12235     12234     12232     12235     12186     12236     12237
     12186     12236     12238     12186     12236     12239     12237     12236     12238
     12237     12236     12239     12238     12236     12239     12236     12239     12240
     12236     12239     12241     12236     12239     12242     12240     12239     12241
     12240     12239     12242     12241     12239     12242     12239     12242     12243
     12239     12242     12244     12239     12242     12245     12243     12242     12244
     12243     12242     12245     12244     12242     12245     12242     12245     12246
     12242     12245     12247     12242     12245     12248     12246     12245     12247
     12246     12245     12248     12247     12245     12248     12245     12248     12249
     12245     12248     12250     12245     12248     12251     12249     12248     12250
     12249     12248     12251     12250     12248     12251     12248     12251     12252
     12248     12251     12253     12248     12251     12254     12252     12251     12253
     12252     12251     12254     12253     12251     12254     12251     12254     12255
     12251     12254     12256     12255     12254     12256     12254     12256     12257
     12254     12256     12258     12257     12256     12258     12256     12258     12259
     12256     12258     12260     12256     12258     12261     12259     12258     12260
     12259     12258     12261     12260     12258     12261     12258     12261     12262
     12258     12261     12263     12258     12261     12264     12262     12261     12263
     12262     12261     12264     12263     12261     12264     12261     12264     12265
     12261     12264     12266     12261     12264     12267     12265     12264     12266
     12265     12264     12267     12266     12264     12267     12264     12267     12268
     12264     12267     12269     12264     12267     12270     12268     12267     12269
     12268     12267     12270     12269     12267     12270     12267     12270     12271
     12267     12270     12272     12267     12270     12273     12271     12270     12272
     12271     12270     12273     12272     12270     12273     12270     12273     12274
     12270     12273     12275     12270     12273     12276     12274     12273     12275
     12274     12273     12276     12275     12273     12276     12273     12276     12277
     12273     12276     12278     12273     12276     12279     12277     12276     12278
     12277     12276     12279     12278     12276     12279     12276     12279     12280
     12276     12279     12281     12276     12279     12282     12280     12279     12281
     12280     12279     12282     12281     12279     12282     12284     12283     12287
     12284     12283     12291     12284     12283     12295     12287     12283     12291
     12287     12283     12295     12291     12283     12295     12283     12284     12285
     12283     12284     12286     12283     12284     12299     12285     12284     12286
     12285     12284     12299     12286     12284     12299     12283     12287     12288
     12283     12287     12289     12283     12287     12290     12288     12287     12289
     12288     12287     12290     12289     12287     12290     12283     12291     12292
     12283     12291     12293     12283     12291     12294     12292     12291     12293
     12292     12291     12294     12293     12291     12294     12283     12295     12296
     12283     12295     12297     12283     12295     12298     12296     12295     12297
     12296     12295     12298     12297     12295     12298     12284     12299     12300
     12284     12299     12301     12284     12299     12305     12300     12299     12301
     12300     12299     12305     12301     12299     12305     12303     12302     12304
     12303     12302     12305     12303     12302     12306     12304     12302     12305
     12304     12302     12306     12305     12302     12306     12299     12305     12302
     12302     12306     12307     12306     12307     12308     12306     12307     12309
     12306     12307     12310     12308     12307     12309     12308     12307     12310
     12309     12307     12310     12307     12310     12311     12307     12310     12312
     12307     12310     12318     12311     12310     12312     12311     12310     12318
     12312     12310     12318     12310     12312     12313     12312     12313     12314
     12312     12313     12315     12314     12313     12315     12313     12315     12316
     12313     12315     12317     12313     12315     12327     12316     12315     12317
     12316     12315     12327     12317     12315     12327     12310     12318     12319
     12310     12318     12320     12310     12318     12321     12319     12318     12320
     12319     12318     12321     12320     12318     12321     12318     12321     12322
     12321     12322     12323     12321     12322     12324     12323     12322     12324
     12322     12324     12325     12322     12324     12326     12322     12324     12374
     12325     12324     12326     12325     12324     12374     12326     12324     12374
     12315     12327     12328     12315     12327     12329     12315     12327     12330
     12328     12327     12329     12328     12327     12330     12329     12327     12330
     12327     12330     12331     12327     12330     12332     12327     12330     12333
     12331     12330     12332     12331     12330     12333     12332     12330     12333
     12330     12333     12334     12330     12333     12335     12330     12333     12336
     12334     12333     12335     12334     12333     12336     12335     12333     12336
     12333     12336     12337     12333     12336     12338     12333     12336     12339
     12337     12336     12338     12337     12336     12339     12338     12336     12339
     12336     12339     12340     12336     12339     12341     12336     12339     12342
     12340     12339     12341     12340     12339     12342     12341     12339     12342
     12339     12342     12343     12339     12342     12344     12339     12342     12345
     12343     12342     12344     12343     12342     12345     12344     12342     12345
     12342     12345     12346     12342     12345     12347     12346     12345     12347
     12345     12347     12348     12345     12347     12349     12348     12347     12349
     12347     12349     12350     12347     12349     12351     12347     12349     12352
     12350     12349     12351     12350     12349     12352     12351     12349     12352
     12349     12352     12353     12349     12352     12354     12349     12352     12355
     12353     12352     12354     12353     12352     12355     12354     12352     12355
     12352     12355     12356     12352     12355     12357     12352     12355     12358
     12356     12355     12357     12356     12355     12358     12357     12355     12358
     12355     12358     12359     12355     12358     12360     12355     12358     12361
     12359     12358     12360     12359     12358     12361     12360     12358     12361
     12358     12361     12362     12358     12361     12363     12358     12361     12364
     12362     12361     12363     12362     12361     12364     12363     12361     12364
     12361     12364     12365     12361     12364     12366     12361     12364     12367
     12365     12364     12366     12365     12364     12367     12366     12364     12367
     12364     12367     12368     12364     12367     12369     12364     12367     12370
     12368     12367     12369     12368     12367     12370     12369     12367     12370
     12367     12370     12371     12367     12370     12372     12367     12370     12373
     12371     12370     12372     12371     12370     12373     12372     12370     12373
     12324     12374     12375     12324     12374     12376     12324     12374     12377
     12375     12374     12376     12375     12374     12377     12376     12374     12377
     12374     12377     12378     12374     12377     12379     12374     12377     12380
     12378     12377     12379     12378     12377     12380     12379     12377     12380
     12377     12380     12381     12377     12380     12382     12377     12380     12383
     12381     12380     12382     12381     12380     12383     12382     12380     12383
     12380     12383     12384     12380     12383     12385     12380     12383     12386
     12384     12383     12385     12384     12383     12386     12385     12383     12386
     12383     12386     12387     12383     12386     12388     12383     12386     12389
     12387     12386     12388     12387     12386     12389     12388     12386     12389
     12386     12389     12390     12386     12389     12391     12386     12389     12392
     12390     12389     12391     12390     12389     12392     12391     12389     12392
     12389     12392     12393     12389     12392     12394     12393     12392     12394
     12392     12394     12395     12392     12394     12396     12395     12394     12396
     12394     12396     12397     12394     12396     12398     12394     12396     12399
     12397     12396     12398     12397     12396     12399     12398     12396     12399
     12396     12399     12400     12396     12399     12401     12396     12399     12402
     12400     12399     12401     12400     12399     12402     12401     12399     12402
     12399     12402     12403     12399     12402     12404     12399     12402     12405
     12403     12402     12404     12403     12402     12405     12404     12402     12405
     12402     12405     12406     12402     12405     12407     12402     12405     12408
     12406     12405     12407     12406     12405     12408     12407     12405     12408
     12405     12408     12409     12405     12408     12410     12405     12408     12411
     12409     12408     12410     12409     12408     12411     12410     12408     12411
     12408     12411     12412     12408     12411     12413     12408     12411     12414
     12412     12411     12413     12412     12411     12414     12413     12411     12414
     12411     12414     12415     12411     12414     12416     12411     12414     12417
     12415     12414     12416     12415     12414     12417     12416     12414     12417
     12414     12417     12418     12414     12417     12419     12414     12417     12420
     12418     12417     12419     12418     12417     12420     12419     12417     12420
     12422     12421     12425     12422     12421     12429     12422     12421     12433
     12425     12421     12429     12425     12421     12433     12429     12421     12433
     12421     12422     12423     12421     12422     12424     12421     12422     12437
     12423     12422     12424     12423     12422     12437     12424     12422     12437
     12421     12425     12426     12421     12425     12427     12421     12425     12428
     12426     12425     12427     12426     12425     12428     12427     12425     12428
     12421     12429     12430     12421     12429     12431     12421     12429     12432
     12430     12429     12431     12430     12429     12432     12431     12429     12432
     12421     12433     12434     12421     12433     12435     12421     12433     12436
     12434     12433     12435     12434     12433     12436     12435     12433     12436
     12422     12437     12438     12422     12437     12439     12422     12437     12443
     12438     12437     12439     12438     12437     12443     12439     12437     12443
     12441     12440     12442     12441     12440     12443     12441     12440     12444
     12442     12440     12443     12442     12440     12444     12443     12440     12444
     12437     12443     12440     12440     12444     12445     12444     12445     12446
     12444     12445     12447     12444     12445     12448     12446     12445     12447
     12446     12445     12448     12447     12445     12448     12445     12448     12449
     12445     12448     12450     12445     12448     12456     12449     12448     12450
     12449     12448     12456     12450     12448     12456     12448     12450     12451
     12450     12451     12452     12450     12451     12453     12452     12451     12453
     12451     12453     12454     12451     12453     12455     12451     12453     12465
     12454     12453     12455     12454     12453     12465     12455     12453     12465
     12448     12456     12457     12448     12456     12458     12448     12456     12459
     12457     12456     12458     12457     12456     12459     12458     12456     12459
     12456     12459     12460     12459     12460     12461     12459     12460     12462
     12461     12460     12462     12460     12462     12463     12460     12462     12464
     12460     12462     12512     12463     12462     12464     12463     12462     12512
     12464     12462     12512     12453     12465     12466     12453     12465     12467
     12453     12465     12468     12466     12465     12467     12466     12465     12468
     12467     12465     12468     12465     12468     12469     12465     12468     12470
     12465     12468     12471     12469     12468     12470     12469     12468     12471
     12470     12468     12471     12468     12471     12472     12468     12471     12473
     12468     12471     12474     12472     12471     12473     12472     12471     12474
     12473     12471     12474     12471     12474     12475     12471     12474     12476
     12471     12474     12477     12475     12474     12476     12475     12474     12477
     12476     12474     12477     12474     12477     12478     12474     12477     12479
     12474     12477     12480     12478     12477     12479     12478     12477     12480
     12479     12477     12480     12477     12480     12481     12477     12480     12482
     12477     12480     12483     12481     12480     12482     12481     12480     12483
     12482     12480     12483     12480     12483     12484     12480     12483     12485
     12484     12483     12485     12483     12485     12486     12483     12485     12487
     12486     12485     12487     12485     12487     12488     12485     12487     12489
     12485     12487     12490     12488     12487     12489     12488     12487     12490
     12489     12487     12490     12487     12490     12491     12487     12490     12492
     12487     12490     12493     12491     12490     12492     12491     12490     12493
     12492     12490     12493     12490     12493     12494     12490     12493     12495
     12490     12493     12496     12494     12493     12495     12494     12493     12496
     12495     12493     12496     12493     12496     12497     12493     12496     12498
     12493     12496     12499     12497     12496     12498     12497     12496     12499
     12498     12496     12499     12496     12499     12500     12496     12499     12501
     12496     12499     12502     12500     12499     12501     12500     12499     12502
     12501     12499     12502     12499     12502     12503     12499     12502     12504
     12499     12502     12505     12503     12502     12504     12503     12502     12505
     12504     12502     12505     12502     12505     12506     12502     12505     12507
     12502     12505     12508     12506     12505     12507     12506     12505     12508
     12507     12505     12508     12505     12508     12509     12505     12508     12510
     12505     12508     12511     12509     12508     12510     12509     12508     12511
     12510     12508     12511     12462     12512     12513     12462     12512     12514
     12462     12512     12515     12513     12512     12514     12513     12512     12515
     12514     12512     12515     12512     12515     12516     12512     12515     12517
     12512     12515     12518     12516     12515     12517     12516     12515     12518
     12517     12515     12518     12515     12518     12519     12515     12518     12520
     12515     12518     12521     12519     12518     12520     12519     12518     12521
     12520     12518     12521     12518     12521     12522     12518     12521     12523
     12518     12521     12524     12522     12521     12523     12522     12521     12524
     12523     12521     12524     12521     12524     12525     12521     12524     12526
     12521     12524     12527     12525     12524     12526     12525     12524     12527
     12526     12524     12527     12524     12527     12528     12524     12527     12529
     12524     12527     12530     12528     12527     12529     12528     12527     12530
     12529     12527     12530     12527     12530     12531     12527     12530     12532
     12531     12530     12532     12530     12532     12533     12530     12532     12534
     12533     12532     12534     12532     12534     12535     12532     12534     12536
     12532     12534     12537     12535     12534     12536     12535     12534     12537
     12536     12534     12537     12534     12537     12538     12534     12537     12539
     12534     12537     12540     12538     12537     12539     12538     12537     12540
     12539     12537     12540     12537     12540     12541     12537     12540     12542
     12537     12540     12543     12541     12540     12542     12541     12540     12543
     12542     12540     12543     12540     12543     12544     12540     12543     12545
     12540     12543     12546     12544     12543     12545     12544     12543     12546
     12545     12543     12546     12543     12546     12547     12543     12546     12548
     12543     12546     12549     12547     12546     12548     12547     12546     12549
     12548     12546     12549     12546     12549     12550     12546     12549     12551
     12546     12549     12552     12550     12549     12551     12550     12549     12552
     12551     12549     12552     12549     12552     12553     12549     12552     12554
     12549     12552     12555     12553     12552     12554     12553     12552     12555
     12554     12552     12555     12552     12555     12556     12552     12555     12557
     12552     12555     12558     12556     12555     12557     12556     12555     12558
     12557     12555     12558     12560     12559     12563     12560     12559     12567
     12560     12559     12571     12563     12559     12567     12563     12559     12571
     12567     12559     12571     12559     12560     12561     12559     12560     12562
     12559     12560     12575     12561     12560     12562     12561     12560     12575
     12562     12560     12575     12559     12563     12564     12559     12563     12565
     12559     12563     12566     12564     12563     12565     12564     12563     12566
     12565     12563     12566     12559     12567     12568     12559     12567     12569
     12559     12567     12570     12568     12567     12569     12568     12567     12570
     12569     12567     12570     12559     12571     12572     12559     12571     12573
     12559     12571     12574     12572     12571     12573     12572     12571     12574
     12573     12571     12574     12560     12575     12576     12560     12575     12577
     12560     12575     12581     12576     12575     12577     12576     12575     12581
     12577     12575     12581     12579     12578     12580     12579     12578     12581
     12579     12578     12582     12580     12578     12581     12580     12578     12582
     12581     12578     12582     12575     12581     12578     12578     12582     12583
     12582     12583     12584     12582     12583     12585     12582     12583     12586
     12584     12583     12585     12584     12583     12586     12585     12583     12586
     12583     12586     12587     12583     12586     12588     12583     12586     12594
     12587     12586     12588     12587     12586     12594     12588     12586     12594
     12586     12588     12589     12588     12589     12590     12588     12589     12591
     12590     12589     12591     12589     12591     12592     12589     12591     12593
     12589     12591     12603     12592     12591     12593     12592     12591     12603
     12593     12591     12603     12586     12594     12595     12586     12594     12596
     12586     12594     12597     12595     12594     12596     12595     12594     12597
     12596     12594     12597     12594     12597     12598     12597     12598     12599
     12597     12598     12600     12599     12598     12600     12598     12600     12601
     12598     12600     12602     12598     12600     12650     12601     12600     12602
     12601     12600     12650     12602     12600     12650     12591     12603     12604
     12591     12603     12605     12591     12603     12606     12604     12603     12605
     12604     12603     12606     12605     12603     12606     12603     12606     12607
     12603     12606     12608     12603     12606     12609     12607     12606     12608
     12607     12606     12609     12608     12606     12609     12606     12609     12610
     12606     12609     12611     12606     12609     12612     12610     12609     12611
     12610     12609     12612     12611     12609     12612     12609     12612     12613
     12609     12612     12614     12609     12612     12615     12613     12612     12614
     12613     12612     12615     12614     12612     12615     12612     12615     12616
     12612     12615     12617     12612     12615     12618     12616     12615     12617
     12616     12615     12618     12617     12615     12618     12615     12618     12619
     12615     12618     12620     12615     12618     12621     12619     12618     12620
     12619     12618     12621     12620     12618     12621     12618     12621     12622
     12618     12621     12623     12622     12621     12623     12621     12623     12624
     12621     12623     12625     12624     12623     12625     12623     12625     12626
     12623     12625     12627     12623     12625     12628     12626     12625     12627
     12626     12625     12628     12627     12625     12628     12625     12628     12629
     12625     12628     12630     12625     12628     12631     12629     12628     12630
     12629     12628     12631     12630     12628     12631     12628     12631     12632
     12628     12631     12633     12628     12631     12634     12632     12631     12633
     12632     12631     12634     12633     12631     12634     12631     12634     12635
     12631     12634     12636     12631     12634     12637     12635     12634     12636
     12635     12634     12637     12636     12634     12637     12634     12637     12638
     12634     12637     12639     12634     12637     12640     12638     12637     12639
     12638     12637     12640     12639     12637     12640     12637     12640     12641
     12637     12640     12642     12637     12640     12643     12641     12640     12642
     12641     12640     12643     12642     12640     12643     12640     12643     12644
     12640     12643     12645     12640     12643     12646     12644     12643     12645
     12644     12643     12646     12645     12643     12646     12643     12646     12647
     12643     12646     12648     12643     12646     12649     12647     12646     12648
     12647     12646     12649     12648     12646     12649     12600     12650     12651
     12600     12650     12652     12600     12650     12653     12651     12650     12652
     12651     12650     12653     12652     12650     12653     12650     12653     12654
     12650     12653     12655     12650     12653     12656     12654     12653     12655
     12654     12653     12656     12655     12653     12656     12653     12656     12657
     12653     12656     12658     12653     12656     12659     12657     12656     12658
     12657     12656     12659     12658     12656     12659     12656     12659     12660
     12656     12659     12661     12656     12659     12662     12660     12659     12661
     12660     12659     12662     12661     12659     12662     12659     12662     12663
     12659     12662     12664     12659     12662     12665     12663     12662     12664
     12663     12662     12665     12664     12662     12665     12662     12665     12666
     12662     12665     12667     12662     12665     12668     12666     12665     12667
     12666     12665     12668     12667     12665     12668     12665     12668     12669
     12665     12668     12670     12669     12668     12670     12668     12670     12671
     12668     12670     12672     12671     12670     12672     12670     12672     12673
     12670     12672     12674     12670     12672     12675     12673     12672     12674
     12673     12672     12675     12674     12672     12675     12672     12675     12676
     12672     12675     12677     12672     12675     12678     12676     12675     12677
     12676     12675     12678     12677     12675     12678     12675     12678     12679
     12675     12678     12680     12675     12678     12681     12679     12678     12680
     12679     12678     12681     12680     12678     12681     12678     12681     12682
     12678     12681     12683     12678     12681     12684     12682     12681     12683
     12682     12681     12684     12683     12681     12684     12681     12684     12685
     12681     12684     12686     12681     12684     12687     12685     12684     12686
     12685     12684     12687     12686     12684     12687     12684     12687     12688
     12684     12687     12689     12684     12687     12690     12688     12687     12689
     12688     12687     12690     12689     12687     12690     12687     12690     12691
     12687     12690     12692     12687     12690     12693     12691     12690     12692
     12691     12690     12693     12692     12690     12693     12690     12693     12694
     12690     12693     12695     12690     12693     12696     12694     12693     12695
     12694     12693     12696     12695     12693     12696     12698     12697     12701
     12698     12697     12705     12698     12697     12709     12701     12697     12705
     12701     12697     12709     12705     12697     12709     12697     12698     12699
     12697     12698     12700     12697     12698     12713     12699     12698     12700
     12699     12698     12713     12700     12698     12713     12697     12701     12702
     12697     12701     12703     12697     12701     12704     12702     12701     12703
     12702     12701     12704     12703     12701     12704     12697     12705     12706
     12697     12705     12707     12697     12705     12708     12706     12705     12707
     12706     12705     12708     12707     12705     12708     12697     12709     12710
     12697     12709     12711     12697     12709     12712     12710     12709     12711
     12710     12709     12712     12711     12709     12712     12698     12713     12714
     12698     12713     12715     12698     12713     12719     12714     12713     12715
     12714     12713     12719     12715     12713     12719     12717     12716     12718
     12717     12716     12719     12717     12716     12720     12718     12716     12719
     12718     12716     12720     12719     12716     12720     12713     12719     12716
     12716     12720     12721     12720     12721     12722     12720     12721     12723
     12720     12721     12724     12722     12721     12723     12722     12721     12724
     12723     12721     12724     12721     12724     12725     12721     12724     12726
     12721     12724     12732     12725     12724     12726     12725     12724     12732
     12726     12724     12732     12724     12726     12727     12726     12727     12728
     12726     12727     12729     12728     12727     12729     12727     12729     12730
     12727     12729     12731     12727     12729     12741     12730     12729     12731
     12730     12729     12741     12731     12729     12741     12724     12732     12733
     12724     12732     12734     12724     12732     12735     12733     12732     12734
     12733     12732     12735     12734     12732     12735     12732     12735     12736
     12735     12736     12737     12735     12736     12738     12737     12736     12738
     12736     12738     12739     12736     12738     12740     12736     12738     12788
     12739     12738     12740     12739     12738     12788     12740     12738     12788
     12729     12741     12742     12729     12741     12743     12729     12741     12744
     12742     12741     12743     12742     12741     12744     12743     12741     12744
     12741     12744     12745     12741     12744     12746     12741     12744     12747
     12745     12744     12746     12745     12744     12747     12746     12744     12747
     12744     12747     12748     12744     12747     12749     12744     12747     12750
     12748     12747     12749     12748     12747     12750     12749     12747     12750
     12747     12750     12751     12747     12750     12752     12747     12750     12753
     12751     12750     12752     12751     12750     12753     12752     12750     12753
     12750     12753     12754     12750     12753     12755     12750     12753     12756
     12754     12753     12755     12754     12753     12756     12755     12753     12756
     12753     12756     12757     12753     12756     12758     12753     12756     12759
     12757     12756     12758     12757     12756     12759     12758     12756     12759
     12756     12759     12760     12756     12759     12761     12760     12759     12761
     12759     12761     12762     12759     12761     12763     12762     12761     12763
     12761     12763     12764     12761     12763     12765     12761     12763     12766
     12764     12763     12765     12764     12763     12766     12765     12763     12766
     12763     12766     12767     12763     12766     12768     12763     12766     12769
     12767     12766     12768     12767     12766     12769     12768     12766     12769
     12766     12769     12770     12766     12769     12771     12766     12769     12772
     12770     12769     12771     12770     12769     12772     12771     12769     12772
     12769     12772     12773     12769     12772     12774     12769     12772     12775
     12773     12772     12774     12773     12772     12775     12774     12772     12775
     12772     12775     12776     12772     12775     12777     12772     12775     12778
     12776     12775     12777     12776     12775     12778     12777     12775     12778
     12775     12778     12779     12775     12778     12780     12775     12778     12781
     12779     12778     12780     12779     12778     12781     12780     12778     12781
     12778     12781     12782     12778     12781     12783     12778     12781     12784
     12782     12781     12783     12782     12781     12784     12783     12781     12784
     12781     12784     12785     12781     12784     12786     12781     12784     12787
     12785     12784     12786     12785     12784     12787     12786     12784     12787
     12738     12788     12789     12738     12788     12790     12738     12788     12791
     12789     12788     12790     12789     12788     12791     12790     12788     12791
     12788     12791     12792     12788     12791     12793     12788     12791     12794
     12792     12791     12793     12792     12791     12794     12793     12791     12794
     12791     12794     12795     12791     12794     12796     12791     12794     12797
     12795     12794     12796     12795     12794     12797     12796     12794     12797
     12794     12797     12798     12794     12797     12799     12794     12797     12800
     12798     12797     12799     12798     12797     12800     12799     12797     12800
     12797     12800     12801     12797     12800     12802     12797     12800     12803
     12801     12800     12802     12801     12800     12803     12802     12800     12803
     12800     12803     12804     12800     12803     12805     12800     12803     12806
     12804     12803     12805     12804     12803     12806     12805     12803     12806
     12803     12806     12807     12803     12806     12808     12807     12806     12808
     12806     12808     12809     12806     12808     12810     12809     12808     12810
     12808     12810     12811     12808     12810     12812     12808     12810     12813
     12811     12810     12812     12811     12810     12813     12812     12810     12813
     12810     12813     12814     12810     12813     12815     12810     12813     12816
     12814     12813     12815     12814     12813     12816     12815     12813     12816
     12813     12816     12817     12813     12816     12818     12813     12816     12819
     12817     12816     12818     12817     12816     12819     12818     12816     12819
     12816     12819     12820     12816     12819     12821     12816     12819     12822
     12820     12819     12821     12820     12819     12822     12821     12819     12822
     12819     12822     12823     12819     12822     12824     12819     12822     12825
     12823     12822     12824     12823     12822     12825     12824     12822     12825
     12822     12825     12826     12822     12825     12827     12822     12825     12828
     12826     12825     12827     12826     12825     12828     12827     12825     12828
     12825     12828     12829     12825     12828     12830     12825     12828     12831
     12829     12828     12830     12829     12828     12831     12830     12828     12831
     12828     12831     12832     12828     12831     12833     12828     12831     12834
     12832     12831     12833     12832     12831     12834     12833     12831     12834
     12836     12835     12839     12836     12835     12843     12836     12835     12847
     12839     12835     12843     12839     12835     12847     12843     12835     12847
     12835     12836     12837     12835     12836     12838     12835     12836     12851
     12837     12836     12838     12837     12836     12851     12838     12836     12851
     12835     12839     12840     12835     12839     12841     12835     12839     12842
     12840     12839     12841     12840     12839     12842     12841     12839     12842
     12835     12843     12844     12835     12843     12845     12835     12843     12846
     12844     12843     12845     12844     12843     12846     12845     12843     12846
     12835     12847     12848     12835     12847     12849     12835     12847     12850
     12848     12847     12849     12848     12847     12850     12849     12847     12850
     12836     12851     12852     12836     12851     12853     12836     12851     12857
     12852     12851     12853     12852     12851     12857     12853     12851     12857
     12855     12854     12856     12855     12854     12857     12855     12854     12858
     12856     12854     12857     12856     12854     12858     12857     12854     12858
     12851     12857     12854     12854     12858     12859     12858     12859     12860
     12858     12859     12861     12858     12859     12862     12860     12859     12861
     12860     12859     12862     12861     12859     12862     12859     12862     12863
     12859     12862     12864     12859     12862     12870     12863     12862     12864
     12863     12862     12870     12864     12862     12870     12862     12864     12865
     12864     12865     12866     12864     12865     12867     12866     12865     12867
     12865     12867     12868     12865     12867     12869     12865     12867     12879
     12868     12867     12869     12868     12867     12879     12869     12867     12879
     12862     12870     12871     12862     12870     12872     12862     12870     12873
     12871     12870     12872     12871     12870     12873     12872     12870     12873
     12870     12873     12874     12873     12874     12875     12873     12874     12876
     12875     12874     12876     12874     12876     12877     12874     12876     12878
     12874     12876     12926     12877     12876     12878     12877     12876     12926
     12878     12876     12926     12867     12879     12880     12867     12879     12881
     12867     12879     12882     12880     12879     12881     12880     12879     12882
     12881     12879     12882     12879     12882     12883     12879     12882     12884
     12879     12882     12885     12883     12882     12884     12883     12882     12885
     12884     12882     12885     12882     12885     12886     12882     12885     12887
     12882     12885     12888     12886     12885     12887     12886     12885     12888
     12887     12885     12888     12885     12888     12889     12885     12888     12890
     12885     12888     12891     12889     12888     12890     12889     12888     12891
     12890     12888     12891     12888     12891     12892     12888     12891     12893
     12888     12891     12894     12892     12891     12893     12892     12891     12894
     12893     12891     12894     12891     12894     12895     12891     12894     12896
     12891     12894     12897     12895     12894     12896     12895     12894     12897
     12896     12894     12897     12894     12897     12898     12894     12897     12899
     12898     12897     12899     12897     12899     12900     12897     12899     12901
     12900     12899     12901     12899     12901     12902     12899     12901     12903
     12899     12901     12904     12902     12901     12903     12902     12901     12904
     12903     12901     12904     12901     12904     12905     12901     12904     12906
     12901     12904     12907     12905     12904     12906     12905     12904     12907
     12906     12904     12907     12904     12907     12908     12904     12907     12909
     12904     12907     12910     12908     12907     12909     12908     12907     12910
     12909     12907     12910     12907     12910     12911     12907     12910     12912
     12907     12910     12913     12911     12910     12912     12911     12910     12913
     12912     12910     12913     12910     12913     12914     12910     12913     12915
     12910     12913     12916     12914     12913     12915     12914     12913     12916
     12915     12913     12916     12913     12916     12917     12913     12916     12918
     12913     12916     12919     12917     12916     12918     12917     12916     12919
     12918     12916     12919     12916     12919     12920     12916     12919     12921
     12916     12919     12922     12920     12919     12921     12920     12919     12922
     12921     12919     12922     12919     12922     12923     12919     12922     12924
     12919     12922     12925     12923     12922     12924     12923     12922     12925
     12924     12922     12925     12876     12926     12927     12876     12926     12928
     12876     12926     12929     12927     12926     12928     12927     12926     12929
     12928     12926     12929     12926     12929     12930     12926     12929     12931
     12926     12929     12932     12930     12929     12931     12930     12929     12932
     12931     12929     12932     12929     12932     12933     12929     12932     12934
     12929     12932     12935     12933     12932     12934     12933     12932     12935
     12934     12932     12935     12932     12935     12936     12932     12935     12937
     12932     12935     12938     12936     12935     12937     12936     12935     12938
     12937     12935     12938     12935     12938     12939     12935     12938     12940
     12935     12938     12941     12939     12938     12940     12939     12938     12941
     12940     12938     12941     12938     12941     12942     12938     12941     12943
     12938     12941     12944     12942     12941     12943     12942     12941     12944
     12943     12941     12944     12941     12944     12945     12941     12944     12946
     12945     12944     12946     12944     12946     12947     12944     12946     12948
     12947     12946     12948     12946     12948     12949     12946     12948     12950
     12946     12948     12951     12949     12948     12950     12949     12948     12951
     12950     12948     12951     12948     12951     12952     12948     12951     12953
     12948     12951     12954     12952     12951     12953     12952     12951     12954
     12953     12951     12954     12951     12954     12955     12951     12954     12956
     12951     12954     12957     12955     12954     12956     12955     12954     12957
     12956     12954     12957     12954     12957     12958     12954     12957     12959
     12954     12957     12960     12958     12957     12959     12958     12957     12960
     12959     12957     12960     12957     12960     12961     12957     12960     12962
     12957     12960     12963     12961     12960     12962     12961     12960     12963
     12962     12960     12963     12960     12963     12964     12960     12963     12965
     12960     12963     12966     12964     12963     12965     12964     12963     12966
     12965     12963     12966     12963     12966     12967     12963     12966     12968
     12963     12966     12969     12967     12966     12968     12967     12966     12969
     12968     12966     12969     12966     12969     12970     12966     12969     12971
     12966     12969     12972     12970     12969     12971     12970     12969     12972
     12971     12969     12972     12974     12973     12977     12974     12973     12981
     12974     12973     12985     12977     12973     12981     12977     12973     12985
     12981     12973     12985     12973     12974     12975     12973     12974     12976
     12973     12974     12989     12975     12974     12976     12975     12974     12989
     12976     12974     12989     12973     12977     12978     12973     12977     12979
     12973     12977     12980     12978     12977     12979     12978     12977     12980
     12979     12977     12980     12973     12981     12982     12973     12981     12983
     12973     12981     12984     12982     12981     12983     12982     12981     12984
     12983     12981     12984     12973     12985     12986     12973     12985     12987
     12973     12985     12988     12986     12985     12987     12986     12985     12988
     12987     12985     12988     12974     12989     12990     12974     12989     12991
     12974     12989     12995     12990     12989     12991     12990     12989     12995
     12991     12989     12995     12993     12992     12994     12993     12992     12995
     12993     12992     12996     12994     12992     12995     12994     12992     12996
     12995     12992     12996     12989     12995     12992     12992     12996     12997
     12996     12997     12998     12996     12997     12999     12996     12997     13000
     12998     12997     12999     12998     12997     13000     12999     12997     13000
     12997     13000     13001     12997     13000     13002     12997     13000     13008
     13001     13000     13002     13001     13000     13008     13002     13000     13008
     13000     13002     13003     13002     13003     13004     13002     13003     13005
     13004     13003     13005     13003     13005     13006     13003     13005     13007
     13003     13005     13017     13006     13005     13007     13006     13005     13017
     13007     13005     13017     13000     13008     13009     13000     13008     13010
     13000     13008     13011     13009     13008     13010     13009     13008     13011
     13010     13008     13011     13008     13011     13012     13011     13012     13013
     13011     13012     13014     13013     13012     13014     13012     13014     13015
     13012     13014     13016     13012     13014     13064     13015     13014     13016
     13015     13014     13064     13016     13014     13064     13005     13017     13018
     13005     13017     13019     13005     13017     13020     13018     13017     13019
     13018     13017     13020     13019     13017     13020     13017     13020     13021
     13017     13020     13022     13017     13020     13023     13021     13020     13022
     13021     13020     13023     13022     13020     13023     13020     13023     13024
     13020     13023     13025     13020     13023     13026     13024     13023     13025
     13024     13023     13026     13025     13023     13026     13023     13026     13027
     13023     13026     13028     13023     13026     13029     13027     13026     13028
     13027     13026     13029     13028     13026     13029     13026     13029     13030
     13026     13029     13031     13026     13029     13032     13030     13029     13031
     13030     13029     13032     13031     13029     13032     13029     13032     13033
     13029     13032     13034     13029     13032     13035     13033     13032     13034
     13033     13032     13035     13034     13032     13035     13032     13035     13036
     13032     13035     13037     13036     13035     13037     13035     13037     13038
     13035     13037     13039     13038     13037     13039     13037     13039     13040
     13037     13039     13041     13037     13039     13042     13040     13039     13041
     13040     13039     13042     13041     13039     13042     13039     13042     13043
     13039     13042     13044     13039     13042     13045     13043     13042     13044
     13043     13042     13045     13044     13042     13045     13042     13045     13046
     13042     13045     13047     13042     13045     13048     13046     13045     13047
     13046     13045     13048     13047     13045     13048     13045     13048     13049
     13045     13048     13050     13045     13048     13051     13049     13048     13050
     13049     13048     13051     13050     13048     13051     13048     13051     13052
     13048     13051     13053     13048     13051     13054     13052     13051     13053
     13052     13051     13054     13053     13051     13054     13051     13054     13055
     13051     13054     13056     13051     13054     13057     13055     13054     13056
     13055     13054     13057     13056     13054     13057     13054     13057     13058
     13054     13057     13059     13054     13057     13060     13058     13057     13059
     13058     13057     13060     13059     13057     13060     13057     13060     13061
     13057     13060     13062     13057     13060     13063     13061     13060     13062
     13061     13060     13063     13062     13060     13063     13014     13064     13065
     13014     13064     13066     13014     13064     13067     13065     13064     13066
     13065     13064     13067     13066     13064     13067     13064     13067     13068
     13064     13067     13069     13064     13067     13070     13068     13067     13069
     13068     13067     13070     13069     13067     13070     13067     13070     13071
     13067     13070     13072     13067     13070     13073     13071     13070     13072
     13071     13070     13073     13072     13070     13073     13070     13073     13074
     13070     13073     13075     13070     13073     13076     13074     13073     13075
     13074     13073     13076     13075     13073     13076     13073     13076     13077
     13073     13076     13078     13073     13076     13079     13077     13076     13078
     13077     13076     13079     13078     13076     13079     13076     13079     13080
     13076     13079     13081     13076     13079     13082     13080     13079     13081
     13080     13079     13082     13081     13079     13082     13079     13082     13083
     13079     13082     13084     13083     13082     13084     13082     13084     13085
     13082     13084     13086     13085     13084     13086     13084     13086     13087
     13084     13086     13088     13084     13086     13089     13087     13086     13088
     13087     13086     13089     13088     13086     13089     13086     13089     13090
     13086     13089     13091     13086     13089     13092     13090     13089     13091
     13090     13089     13092     13091     13089     13092     13089     13092     13093
     13089     13092     13094     13089     13092     13095     13093     13092     13094
     13093     13092     13095     13094     13092     13095     13092     13095     13096
     13092     13095     13097     13092     13095     13098     13096     13095     13097
     13096     13095     13098     13097     13095     13098     13095     13098     13099
     13095     13098     13100     13095     13098     13101     13099     13098     13100
     13099     13098     13101     13100     13098     13101     13098     13101     13102
     13098     13101     13103     13098     13101     13104     13102     13101     13103
     13102     13101     13104     13103     13101     13104     13101     13104     13105
     13101     13104     13106     13101     13104     13107     13105     13104     13106
     13105     13104     13107     13106     13104     13107     13104     13107     13108
     13104     13107     13109     13104     13107     13110     13108     13107     13109
     13108     13107     13110     13109     13107     13110     13112     13111     13115
     13112     13111     13119     13112     13111     13123     13115     13111     13119
     13115     13111     13123     13119     13111     13123     13111     13112     13113
     13111     13112     13114     13111     13112     13127     13113     13112     13114
     13113     13112     13127     13114     13112     13127     13111     13115     13116
     13111     13115     13117     13111     13115     13118     13116     13115     13117
     13116     13115     13118     13117     13115     13118     13111     13119     13120
     13111     13119     13121     13111     13119     13122     13120     13119     13121
     13120     13119     13122     13121     13119     13122     13111     13123     13124
     13111     13123     13125     13111     13123     13126     13124     13123     13125
     13124     13123     13126     13125     13123     13126     13112     13127     13128
     13112     13127     13129     13112     13127     13133     13128     13127     13129
     13128     13127     13133     13129     13127     13133     13131     13130     13132
     13131     13130     13133     13131     13130     13134     13132     13130     13133
     13132     13130     13134     13133     13130     13134     13127     13133     13130
     13130     13134     13135     13134     13135     13136     13134     13135     13137
     13134     13135     13138     13136     13135     13137     13136     13135     13138
     13137     13135     13138     13135     13138     13139     13135     13138     13140
     13135     13138     13146     13139     13138     13140     13139     13138     13146
     13140     13138     13146     13138     13140     13141     13140     13141     13142
     13140     13141     13143     13142     13141     13143     13141     13143     13144
     13141     13143     13145     13141     13143     13155     13144     13143     13145
     13144     13143     13155     13145     13143     13155     13138     13146     13147
     13138     13146     13148     13138     13146     13149     13147     13146     13148
     13147     13146     13149     13148     13146     13149     13146     13149     13150
     13149     13150     13151     13149     13150     13152     13151     13150     13152
     13150     13152     13153     13150     13152     13154     13150     13152     13202
     13153     13152     13154     13153     13152     13202     13154     13152     13202
     13143     13155     13156     13143     13155     13157     13143     13155     13158
     13156     13155     13157     13156     13155     13158     13157     13155     13158
     13155     13158     13159     13155     13158     13160     13155     13158     13161
     13159     13158     13160     13159     13158     13161     13160     13158     13161
     13158     13161     13162     13158     13161     13163     13158     13161     13164
     13162     13161     13163     13162     13161     13164     13163     13161     13164
     13161     13164     13165     13161     13164     13166     13161     13164     13167
     13165     13164     13166     13165     13164     13167     13166     13164     13167
     13164     13167     13168     13164     13167     13169     13164     13167     13170
     13168     13167     13169     13168     13167     13170     13169     13167     13170
     13167     13170     13171     13167     13170     13172     13167     13170     13173
     13171     13170     13172     13171     13170     13173     13172     13170     13173
     13170     13173     13174     13170     13173     13175     13174     13173     13175
     13173     13175     13176     13173     13175     13177     13176     13175     13177
     13175     13177     13178     13175     13177     13179     13175     13177     13180
     13178     13177     13179     13178     13177     13180     13179     13177     13180
     13177     13180     13181     13177     13180     13182     13177     13180     13183
     13181     13180     13182     13181     13180     13183     13182     13180     13183
     13180     13183     13184     13180     13183     13185     13180     13183     13186
     13184     13183     13185     13184     13183     13186     13185     13183     13186
     13183     13186     13187     13183     13186     13188     13183     13186     13189
     13187     13186     13188     13187     13186     13189     13188     13186     13189
     13186     13189     13190     13186     13189     13191     13186     13189     13192
     13190     13189     13191     13190     13189     13192     13191     13189     13192
     13189     13192     13193     13189     13192     13194     13189     13192     13195
     13193     13192     13194     13193     13192     13195     13194     13192     13195
     13192     13195     13196     13192     13195     13197     13192     13195     13198
     13196     13195     13197     13196     13195     13198     13197     13195     13198
     13195     13198     13199     13195     13198     13200     13195     13198     13201
     13199     13198     13200     13199     13198     13201     13200     13198     13201
     13152     13202     13203     13152     13202     13204     13152     13202     13205
     13203     13202     13204     13203     13202     13205     13204     13202     13205
     13202     13205     13206     13202     13205     13207     13202     13205     13208
     13206     13205     13207     13206     13205     13208     13207     13205     13208
     13205     13208     13209     13205     13208     13210     13205     13208     13211
     13209     13208     13210     13209     13208     13211     13210     13208     13211
     13208     13211     13212     13208     13211     13213     13208     13211     13214
     13212     13211     13213     13212     13211     13214     13213     13211     13214
     13211     13214     13215     13211     13214     13216     13211     13214     13217
     13215     13214     13216     13215     13214     13217     13216     13214     13217
     13214     13217     13218     13214     13217     13219     13214     13217     13220
     13218     13217     13219     13218     13217     13220     13219     13217     13220
     13217     13220     13221     13217     13220     13222     13221     13220     13222
     13220     13222     13223     13220     13222     13224     13223     13222     13224
     13222     13224     13225     13222     13224     13226     13222     13224     13227
     13225     13224     13226     13225     13224     13227     13226     13224     13227
     13224     13227     13228     13224     13227     13229     13224     13227     13230
     13228     13227     13229     13228     13227     13230     13229     13227     13230
     13227     13230     13231     13227     13230     13232     13227     13230     13233
     13231     13230     13232     13231     13230     13233     13232     13230     13233
     13230     13233     13234     13230     13233     13235     13230     13233     13236
     13234     13233     13235     13234     13233     13236     13235     13233     13236
     13233     13236     13237     13233     13236     13238     13233     13236     13239
     13237     13236     13238     13237     13236     13239     13238     13236     13239
     13236     13239     13240     13236     13239     13241     13236     13239     13242
     13240     13239     13241     13240     13239     13242     13241     13239     13242
     13239     13242     13243     13239     13242     13244     13239     13242     13245
     13243     13242     13244     13243     13242     13245     13244     13242     13245
     13242     13245     13246     13242     13245     13247     13242     13245     13248
     13246     13245     13247     13246     13245     13248     13247     13245     13248
     13250     13249     13253     13250     13249     13257     13250     13249     13261
     13253     13249     13257     13253     13249     13261     13257     13249     13261
     13249     13250     13251     13249     13250     13252     13249     13250     13265
     13251     13250     13252     13251     13250     13265     13252     13250     13265
     13249     13253     13254     13249     13253     13255     13249     13253     13256
     13254     13253     13255     13254     13253     13256     13255     13253     13256
     13249     13257     13258     13249     13257     13259     13249     13257     13260
     13258     13257     13259     13258     13257     13260     13259     13257     13260
     13249     13261     13262     13249     13261     13263     13249     13261     13264
     13262     13261     13263     13262     13261     13264     13263     13261     13264
     13250     13265     13266     13250     13265     13267     13250     13265     13271
     13266     13265     13267     13266     13265     13271     13267     13265     13271
     13269     13268     13270     13269     13268     13271     13269     13268     13272
     13270     13268     13271     13270     13268     13272     13271     13268     13272
     13265     13271     13268     13268     13272     13273     13272     13273     13274
     13272     13273     13275     13272     13273     13276     13274     13273     13275
     13274     13273     13276     13275     13273     13276     13273     13276     13277
     13273     13276     13278     13273     13276     13284     13277     13276     13278
     13277     13276     13284     13278     13276     13284     13276     13278     13279
     13278     13279     13280     13278     13279     13281     13280     13279     13281
     13279     13281     13282     13279     13281     13283     13279     13281     13293
     13282     13281     13283     13282     13281     13293     13283     13281     13293
     13276     13284     13285     13276     13284     13286     13276     13284     13287
     13285     13284     13286     13285     13284     13287     13286     13284     13287
     13284     13287     13288     13287     13288     13289     13287     13288     13290
     13289     13288     13290     13288     13290     13291     13288     13290     13292
     13288     13290     13340     13291     13290     13292     13291     13290     13340
     13292     13290     13340     13281     13293     13294     13281     13293     13295
     13281     13293     13296     13294     13293     13295     13294     13293     13296
     13295     13293     13296     13293     13296     13297     13293     13296     13298
     13293     13296     13299     13297     13296     13298     13297     13296     13299
     13298     13296     13299     13296     13299     13300     13296     13299     13301
     13296     13299     13302     13300     13299     13301     13300     13299     13302
     13301     13299     13302     13299     13302     13303     13299     13302     13304
     13299     13302     13305     13303     13302     13304     13303     13302     13305
     13304     13302     13305     13302     13305     13306     13302     13305     13307
     13302     13305     13308     13306     13305     13307     13306     13305     13308
     13307     13305     13308     13305     13308     13309     13305     13308     13310
     13305     13308     13311     13309     13308     13310     13309     13308     13311
     13310     13308     13311     13308     13311     13312     13308     13311     13313
     13312     13311     13313     13311     13313     13314     13311     13313     13315
     13314     13313     13315     13313     13315     13316     13313     13315     13317
     13313     13315     13318     13316     13315     13317     13316     13315     13318
     13317     13315     13318     13315     13318     13319     13315     13318     13320
     13315     13318     13321     13319     13318     13320     13319     13318     13321
     13320     13318     13321     13318     13321     13322     13318     13321     13323
     13318     13321     13324     13322     13321     13323     13322     13321     13324
     13323     13321     13324     13321     13324     13325     13321     13324     13326
     13321     13324     13327     13325     13324     13326     13325     13324     13327
     13326     13324     13327     13324     13327     13328     13324     13327     13329
     13324     13327     13330     13328     13327     13329     13328     13327     13330
     13329     13327     13330     13327     13330     13331     13327     13330     13332
     13327     13330     13333     13331     13330     13332     13331     13330     13333
     13332     13330     13333     13330     13333     13334     13330     13333     13335
     13330     13333     13336     13334     13333     13335     13334     13333     13336
     13335     13333     13336     13333     13336     13337     13333     13336     13338
     13333     13336     13339     13337     13336     13338     13337     13336     13339
     13338     13336     13339     13290     13340     13341     13290     13340     13342
     13290     13340     13343     13341     13340     13342     13341     13340     13343
     13342     13340     13343     13340     13343     13344     13340     13343     13345
     13340     13343     13346     13344     13343     13345     13344     13343     13346
     13345     13343     13346     13343     13346     13347     13343     13346     13348
     13343     13346     13349     13347     13346     13348     13347     13346     13349
     13348     13346     13349     13346     13349     13350     13346     13349     13351
     13346     13349     13352     13350     13349     13351     13350     13349     13352
     13351     13349     13352     13349     13352     13353     13349     13352     13354
     13349     13352     13355     13353     13352     13354     13353     13352     13355
     13354     13352     13355     13352     13355     13356     13352     13355     13357
     13352     13355     13358     13356     13355     13357     13356     13355     13358
     13357     13355     13358     13355     13358     13359     13355     13358     13360
     13359     13358     13360     13358     13360     13361     13358     13360     13362
     13361     13360     13362     13360     13362     13363     13360     13362     13364
     13360     13362     13365     13363     13362     13364     13363     13362     13365
     13364     13362     13365     13362     13365     13366     13362     13365     13367
     13362     13365     13368     13366     13365     13367     13366     13365     13368
     13367     13365     13368     13365     13368     13369     13365     13368     13370
     13365     13368     13371     13369     13368     13370     13369     13368     13371
     13370     13368     13371     13368     13371     13372     13368     13371     13373
     13368     13371     13374     13372     13371     13373     13372     13371     13374
     13373     13371     13374     13371     13374     13375     13371     13374     13376
     13371     13374     13377     13375     13374     13376     13375     13374     13377
     13376     13374     13377     13374     13377     13378     13374     13377     13379
     13374     13377     13380     13378     13377     13379     13378     13377     13380
     13379     13377     13380     13377     13380     13381     13377     13380     13382
     13377     13380     13383     13381     13380     13382     13381     13380     13383
     13382     13380     13383     13380     13383     13384     13380     13383     13385
     13380     13383     13386     13384     13383     13385     13384     13383     13386
     13385     13383     13386     13388     13387     13391     13388     13387     13395
     13388     13387     13399     13391     13387     13395     13391     13387     13399
     13395     13387     13399     13387     13388     13389     13387     13388     13390
     13387     13388     13403     13389     13388     13390     13389     13388     13403
     13390     13388     13403     13387     13391     13392     13387     13391     13393
     13387     13391     13394     13392     13391     13393     13392     13391     13394
     13393     13391     13394     13387     13395     13396     13387     13395     13397
     13387     13395     13398     13396     13395     13397     13396     13395     13398
     13397     13395     13398     13387     13399     13400     13387     13399     13401
     13387     13399     13402     13400     13399     13401     13400     13399     13402
     13401     13399     13402     13388     13403     13404     13388     13403     13405
     13388     13403     13409     13404     13403     13405     13404     13403     13409
     13405     13403     13409     13407     13406     13408     13407     13406     13409
     13407     13406     13410     13408     13406     13409     13408     13406     13410
     13409     13406     13410     13403     13409     13406     13406     13410     13411
     13410     13411     13412     13410     13411     13413     13410     13411     13414
     13412     13411     13413     13412     13411     13414     13413     13411     13414
     13411     13414     13415     13411     13414     13416     13411     13414     13422
     13415     13414     13416     13415     13414     13422     13416     13414     13422
     13414     13416     13417     13416     13417     13418     13416     13417     13419
     13418     13417     13419     13417     13419     13420     13417     13419     13421
     13417     13419     13431     13420     13419     13421     13420     13419     13431
     13421     13419     13431     13414     13422     13423     13414     13422     13424
     13414     13422     13425     13423     13422     13424     13423     13422     13425
     13424     13422     13425     13422     13425     13426     13425     13426     13427
     13425     13426     13428     13427     13426     13428     13426     13428     13429
     13426     13428     13430     13426     13428     13478     13429     13428     13430
     13429     13428     13478     13430     13428     13478     13419     13431     13432
     13419     13431     13433     13419     13431     13434     13432     13431     13433
     13432     13431     13434     13433     13431     13434     13431     13434     13435
     13431     13434     13436     13431     13434     13437     13435     13434     13436
     13435     13434     13437     13436     13434     13437     13434     13437     13438
     13434     13437     13439     13434     13437     13440     13438     13437     13439
     13438     13437     13440     13439     13437     13440     13437     13440     13441
     13437     13440     13442     13437     13440     13443     13441     13440     13442
     13441     13440     13443     13442     13440     13443     13440     13443     13444
     13440     13443     13445     13440     13443     13446     13444     13443     13445
     13444     13443     13446     13445     13443     13446     13443     13446     13447
     13443     13446     13448     13443     13446     13449     13447     13446     13448
     13447     13446     13449     13448     13446     13449     13446     13449     13450
     13446     13449     13451     13450     13449     13451     13449     13451     13452
     13449     13451     13453     13452     13451     13453     13451     13453     13454
     13451     13453     13455     13451     13453     13456     13454     13453     13455
     13454     13453     13456     13455     13453     13456     13453     13456     13457
     13453     13456     13458     13453     13456     13459     13457     13456     13458
     13457     13456     13459     13458     13456     13459     13456     13459     13460
     13456     13459     13461     13456     13459     13462     13460     13459     13461
     13460     13459     13462     13461     13459     13462     13459     13462     13463
     13459     13462     13464     13459     13462     13465     13463     13462     13464
     13463     13462     13465     13464     13462     13465     13462     13465     13466
     13462     13465     13467     13462     13465     13468     13466     13465     13467
     13466     13465     13468     13467     13465     13468     13465     13468     13469
     13465     13468     13470     13465     13468     13471     13469     13468     13470
     13469     13468     13471     13470     13468     13471     13468     13471     13472
     13468     13471     13473     13468     13471     13474     13472     13471     13473
     13472     13471     13474     13473     13471     13474     13471     13474     13475
     13471     13474     13476     13471     13474     13477     13475     13474     13476
     13475     13474     13477     13476     13474     13477     13428     13478     13479
     13428     13478     13480     13428     13478     13481     13479     13478     13480
     13479     13478     13481     13480     13478     13481     13478     13481     13482
     13478     13481     13483     13478     13481     13484     13482     13481     13483
     13482     13481     13484     13483     13481     13484     13481     13484     13485
     13481     13484     13486     13481     13484     13487     13485     13484     13486
     13485     13484     13487     13486     13484     13487     13484     13487     13488
     13484     13487     13489     13484     13487     13490     13488     13487     13489
     13488     13487     13490     13489     13487     13490     13487     13490     13491
     13487     13490     13492     13487     13490     13493     13491     13490     13492
     13491     13490     13493     13492     13490     13493     13490     13493     13494
     13490     13493     13495     13490     13493     13496     13494     13493     13495
     13494     13493     13496     13495     13493     13496     13493     13496     13497
     13493     13496     13498     13497     13496     13498     13496     13498     13499
     13496     13498     13500     13499     13498     13500     13498     13500     13501
     13498     13500     13502     13498     13500     13503     13501     13500     13502
     13501     13500     13503     13502     13500     13503     13500     13503     13504
     13500     13503     13505     13500     13503     13506     13504     13503     13505
     13504     13503     13506     13505     13503     13506     13503     13506     13507
     13503     13506     13508     13503     13506     13509     13507     13506     13508
     13507     13506     13509     13508     13506     13509     13506     13509     13510
     13506     13509     13511     13506     13509     13512     13510     13509     13511
     13510     13509     13512     13511     13509     13512     13509     13512     13513
     13509     13512     13514     13509     13512     13515     13513     13512     13514
     13513     13512     13515     13514     13512     13515     13512     13515     13516
     13512     13515     13517     13512     13515     13518     13516     13515     13517
     13516     13515     13518     13517     13515     13518     13515     13518     13519
     13515     13518     13520     13515     13518     13521     13519     13518     13520
     13519     13518     13521     13520     13518     13521     13518     13521     13522
     13518     13521     13523     13518     13521     13524     13522     13521     13523
     13522     13521     13524     13523     13521     13524     13526     13525     13529
     13526     13525     13533     13526     13525     13537     13529     13525     13533
     13529     13525     13537     13533     13525     13537     13525     13526     13527
     13525     13526     13528     13525     13526     13541     13527     13526     13528
     13527     13526     13541     13528     13526     13541     13525     13529     13530
     13525     13529     13531     13525     13529     13532     13530     13529     13531
     13530     13529     13532     13531     13529     13532     13525     13533     13534
     13525     13533     13535     13525     13533     13536     13534     13533     13535
     13534     13533     13536     13535     13533     13536     13525     13537     13538
     13525     13537     13539     13525     13537     13540     13538     13537     13539
     13538     13537     13540     13539     13537     13540     13526     13541     13542
     13526     13541     13543     13526     13541     13547     13542     13541     13543
     13542     13541     13547     13543     13541     13547     13545     13544     13546
     13545     13544     13547     13545     13544     13548     13546     13544     13547
     13546     13544     13548     13547     13544     13548     13541     13547     13544
     13544     13548     13549     13548     13549     13550     13548     13549     13551
     13548     13549     13552     13550     13549     13551     13550     13549     13552
     13551     13549     13552     13549     13552     13553     13549     13552     13554
     13549     13552     13560     13553     13552     13554     13553     13552     13560
     13554     13552     13560     13552     13554     13555     13554     13555     13556
     13554     13555     13557     13556     13555     13557     13555     13557     13558
     13555     13557     13559     13555     13557     13569     13558     13557     13559
     13558     13557     13569     13559     13557     13569     13552     13560     13561
     13552     13560     13562     13552     13560     13563     13561     13560     13562
     13561     13560     13563     13562     13560     13563     13560     13563     13564
     13563     13564     13565     13563     13564     13566     13565     13564     13566
     13564     13566     13567     13564     13566     13568     13564     13566     13616
     13567     13566     13568     13567     13566     13616     13568     13566     13616
     13557     13569     13570     13557     13569     13571     13557     13569     13572
     13570     13569     13571     13570     13569     13572     13571     13569     13572
     13569     13572     13573     13569     13572     13574     13569     13572     13575
     13573     13572     13574     13573     13572     13575     13574     13572     13575
     13572     13575     13576     13572     13575     13577     13572     13575     13578
     13576     13575     13577     13576     13575     13578     13577     13575     13578
     13575     13578     13579     13575     13578     13580     13575     13578     13581
     13579     13578     13580     13579     13578     13581     13580     13578     13581
     13578     13581     13582     13578     13581     13583     13578     13581     13584
     13582     13581     13583     13582     13581     13584     13583     13581     13584
     13581     13584     13585     13581     13584     13586     13581     13584     13587
     13585     13584     13586     13585     13584     13587     13586     13584     13587
     13584     13587     13588     13584     13587     13589     13588     13587     13589
     13587     13589     13590     13587     13589     13591     13590     13589     13591
     13589     13591     13592     13589     13591     13593     13589     13591     13594
     13592     13591     13593     13592     13591     13594     13593     13591     13594
     13591     13594     13595     13591     13594     13596     13591     13594     13597
     13595     13594     13596     13595     13594     13597     13596     13594     13597
     13594     13597     13598     13594     13597     13599     13594     13597     13600
     13598     13597     13599     13598     13597     13600     13599     13597     13600
     13597     13600     13601     13597     13600     13602     13597     13600     13603
     13601     13600     13602     13601     13600     13603     13602     13600     13603
     13600     13603     13604     13600     13603     13605     13600     13603     13606
     13604     13603     13605     13604     13603     13606     13605     13603     13606
     13603     13606     13607     13603     13606     13608     13603     13606     13609
     13607     13606     13608     13607     13606     13609     13608     13606     13609
     13606     13609     13610     13606     13609     13611     13606     13609     13612
     13610     13609     13611     13610     13609     13612     13611     13609     13612
     13609     13612     13613     13609     13612     13614     13609     13612     13615
     13613     13612     13614     13613     13612     13615     13614     13612     13615
     13566     13616     13617     13566     13616     13618     13566     13616     13619
     13617     13616     13618     13617     13616     13619     13618     13616     13619
     13616     13619     13620     13616     13619     13621     13616     13619     13622
     13620     13619     13621     13620     13619     13622     13621     13619     13622
     13619     13622     13623     13619     13622     13624     13619     13622     13625
     13623     13622     13624     13623     13622     13625     13624     13622     13625
     13622     13625     13626     13622     13625     13627     13622     13625     13628
     13626     13625     13627     13626     13625     13628     13627     13625     13628
     13625     13628     13629     13625     13628     13630     13625     13628     13631
     13629     13628     13630     13629     13628     13631     13630     13628     13631
     13628     13631     13632     13628     13631     13633     13628     13631     13634
     13632     13631     13633     13632     13631     13634     13633     13631     13634
     13631     13634     13635     13631     13634     13636     13635     13634     13636
     13634     13636     13637     13634     13636     13638     13637     13636     13638
     13636     13638     13639     13636     13638     13640     13636     13638     13641
     13639     13638     13640     13639     13638     13641     13640     13638     13641
     13638     13641     13642     13638     13641     13643     13638     13641     13644
     13642     13641     13643     13642     13641     13644     13643     13641     13644
     13641     13644     13645     13641     13644     13646     13641     13644     13647
     13645     13644     13646     13645     13644     13647     13646     13644     13647
     13644     13647     13648     13644     13647     13649     13644     13647     13650
     13648     13647     13649     13648     13647     13650     13649     13647     13650
     13647     13650     13651     13647     13650     13652     13647     13650     13653
     13651     13650     13652     13651     13650     13653     13652     13650     13653
     13650     13653     13654     13650     13653     13655     13650     13653     13656
     13654     13653     13655     13654     13653     13656     13655     13653     13656
     13653     13656     13657     13653     13656     13658     13653     13656     13659
     13657     13656     13658     13657     13656     13659     13658     13656     13659
     13656     13659     13660     13656     13659     13661     13656     13659     13662
     13660     13659     13661     13660     13659     13662     13661     13659     13662
     13664     13663     13667     13664     13663     13671     13664     13663     13675
     13667     13663     13671     13667     13663     13675     13671     13663     13675
     13663     13664     13665     13663     13664     13666     13663     13664     13679
     13665     13664     13666     13665     13664     13679     13666     13664     13679
     13663     13667     13668     13663     13667     13669     13663     13667     13670
     13668     13667     13669     13668     13667     13670     13669     13667     13670
     13663     13671     13672     13663     13671     13673     13663     13671     13674
     13672     13671     13673     13672     13671     13674     13673     13671     13674
     13663     13675     13676     13663     13675     13677     13663     13675     13678
     13676     13675     13677     13676     13675     13678     13677     13675     13678
     13664     13679     13680     13664     13679     13681     13664     13679     13685
     13680     13679     13681     13680     13679     13685     13681     13679     13685
     13683     13682     13684     13683     13682     13685     13683     13682     13686
     13684     13682     13685     13684     13682     13686     13685     13682     13686
     13679     13685     13682     13682     13686     13687     13686     13687     13688
     13686     13687     13689     13686     13687     13690     13688     13687     13689
     13688     13687     13690     13689     13687     13690     13687     13690     13691
     13687     13690     13692     13687     13690     13698     13691     13690     13692
     13691     13690     13698     13692     13690     13698     13690     13692     13693
     13692     13693     13694     13692     13693     13695     13694     13693     13695
     13693     13695     13696     13693     13695     13697     13693     13695     13707
     13696     13695     13697     13696     13695     13707     13697     13695     13707
     13690     13698     13699     13690     13698     13700     13690     13698     13701
     13699     13698     13700     13699     13698     13701     13700     13698     13701
     13698     13701     13702     13701     13702     13703     13701     13702     13704
     13703     13702     13704     13702     13704     13705     13702     13704     13706
     13702     13704     13754     13705     13704     13706     13705     13704     13754
     13706     13704     13754     13695     13707     13708     13695     13707     13709
     13695     13707     13710     13708     13707     13709     13708     13707     13710
     13709     13707     13710     13707     13710     13711     13707     13710     13712
     13707     13710     13713     13711     13710     13712     13711     13710     13713
     13712     13710     13713     13710     13713     13714     13710     13713     13715
     13710     13713     13716     13714     13713     13715     13714     13713     13716
     13715     13713     13716     13713     13716     13717     13713     13716     13718
     13713     13716     13719     13717     13716     13718     13717     13716     13719
     13718     13716     13719     13716     13719     13720     13716     13719     13721
     13716     13719     13722     13720     13719     13721     13720     13719     13722
     13721     13719     13722     13719     13722     13723     13719     13722     13724
     13719     13722     13725     13723     13722     13724     13723     13722     13725
     13724     13722     13725     13722     13725     13726     13722     13725     13727
     13726     13725     13727     13725     13727     13728     13725     13727     13729
     13728     13727     13729     13727     13729     13730     13727     13729     13731
     13727     13729     13732     13730     13729     13731     13730     13729     13732
     13731     13729     13732     13729     13732     13733     13729     13732     13734
     13729     13732     13735     13733     13732     13734     13733     13732     13735
     13734     13732     13735     13732     13735     13736     13732     13735     13737
     13732     13735     13738     13736     13735     13737     13736     13735     13738
     13737     13735     13738     13735     13738     13739     13735     13738     13740
     13735     13738     13741     13739     13738     13740     13739     13738     13741
     13740     13738     13741     13738     13741     13742     13738     13741     13743
     13738     13741     13744     13742     13741     13743     13742     13741     13744
     13743     13741     13744     13741     13744     13745     13741     13744     13746
     13741     13744     13747     13745     13744     13746     13745     13744     13747
     13746     13744     13747     13744     13747     13748     13744     13747     13749
     13744     13747     13750     13748     13747     13749     13748     13747     13750
     13749     13747     13750     13747     13750     13751     13747     13750     13752
     13747     13750     13753     13751     13750     13752     13751     13750     13753
     13752     13750     13753     13704     13754     13755     13704     13754     13756
     13704     13754     13757     13755     13754     13756     13755     13754     13757
     13756     13754     13757     13754     13757     13758     13754     13757     13759
     13754     13757     13760     13758     13757     13759     13758     13757     13760
     13759     13757     13760     13757     13760     13761     13757     13760     13762
     13757     13760     13763     13761     13760     13762     13761     13760     13763
     13762     13760     13763     13760     13763     13764     13760     13763     13765
     13760     13763     13766     13764     13763     13765     13764     13763     13766
     13765     13763     13766     13763     13766     13767     13763     13766     13768
     13763     13766     13769     13767     13766     13768     13767     13766     13769
     13768     13766     13769     13766     13769     13770     13766     13769     13771
     13766     13769     13772     13770     13769     13771     13770     13769     13772
     13771     13769     13772     13769     13772     13773     13769     13772     13774
     13773     13772     13774     13772     13774     13775     13772     13774     13776
     13775     13774     13776     13774     13776     13777     13774     13776     13778
     13774     13776     13779     13777     13776     13778     13777     13776     13779
     13778     13776     13779     13776     13779     13780     13776     13779     13781
     13776     13779     13782     13780     13779     13781     13780     13779     13782
     13781     13779     13782     13779     13782     13783     13779     13782     13784
     13779     13782     13785     13783     13782     13784     13783     13782     13785
     13784     13782     13785     13782     13785     13786     13782     13785     13787
     13782     13785     13788     13786     13785     13787     13786     13785     13788
     13787     13785     13788     13785     13788     13789     13785     13788     13790
     13785     13788     13791     13789     13788     13790     13789     13788     13791
     13790     13788     13791     13788     13791     13792     13788     13791     13793
     13788     13791     13794     13792     13791     13793     13792     13791     13794
     13793     13791     13794     13791     13794     13795     13791     13794     13796
     13791     13794     13797     13795     13794     13796     13795     13794     13797
     13796     13794     13797     13794     13797     13798     13794     13797     13799
     13794     13797     13800     13798     13797     13799     13798     13797     13800
     13799     13797     13800     13802     13801     13803     13805     13804     13806
     13808     13807     13809     13811     13810     13812     13814     13813     13815
     13817     13816     13818     13820     13819     13821     13823     13822     13824
     13826     13825     13827     13829     13828     13830     13832     13831     13833
     13835     13834     13836     13838     13837     13839     13841     13840     13842
     13844     13843     13845     13847     13846     13848     13850     13849     13851
     13853     13852     13854     13856     13855     13857     13859     13858     13860
     13862     13861     13863     13865     13864     13866     13868     13867     13869
     13871     13870     13872     13874     13873     13875     13877     13876     13878
     13880     13879     13881     13883     13882     13884     13886     13885     13887
     13889     13888     13890     13892     13891     13893     13895     13894     13896
     13898     13897     13899     13901     13900     13902     13904     13903     13905
     13907     13906     13908     13910     13909     13911     13913     13912     13914
     13916     13915     13917     13919     13918     13920     13922     13921     13923
     13925     13924     13926     13928     13927     13929     13931     13930     13932
     13934     13933     13935     13937     13936     13938     13940     13939     13941
     13943     13942     13944     13946     13945     13947     13949     13948     13950
     13952     13951     13953     13955     13954     13956     13958     13957     13959
     13961     13960     13962     13964     13963     13965     13967     13966     13968
     13970     13969     13971     13973     13972     13974     13976     13975     13977
     13979     13978     13980     13982     13981     13983     13985     13984     13986
     13988     13987     13989     13991     13990     13992     13994     13993     13995
     13997     13996     13998     14000     13999     14001     14003     14002     14004
     14006     14005     14007     14009     14008     14010     14012     14011     14013
     14015     14014     14016     14018     14017     14019     14021     14020     14022
     14024     14023     14025     14027     14026     14028     14030     14029     14031
     14033     14032     14034     14036     14035     14037     14039     14038     14040
     14042     14041     14043     14045     14044     14046     14048     14047     14049
     14051     14050     14052     14054     14053     14055     14057     14056     14058
     14060     14059     14061     14063     14062     14064     14066     14065     14067
     14069     14068     14070     14072     14071     14073     14075     14074     14076
     14078     14077     14079     14081     14080     14082     14084     14083     14085
     14087     14086     14088     14090     14089     14091     14093     14092     14094
     14096     14095     14097     14099     14098     14100     14102     14101     14103
     14105     14104     14106     14108     14107     14109     14111     14110     14112
     14114     14113     14115     14117     14116     14118     14120     14119     14121
     14123     14122     14124     14126     14125     14127     14129     14128     14130
     14132     14131     14133     14135     14134     14136     14138     14137     14139
     14141     14140     14142     14144     14143     14145     14147     14146     14148
     14150     14149     14151     14153     14152     14154     14156     14155     14157
     14159     14158     14160     14162     14161     14163     14165     14164     14166
     14168     14167     14169     14171     14170     14172     14174     14173     14175
     14177     14176     14178     14180     14179     14181     14183     14182     14184
     14186     14185     14187     14189     14188     14190     14192     14191     14193
     14195     14194     14196     14198     14197     14199     14201     14200     14202
     14204     14203     14205     14207     14206     14208     14210     14209     14211
     14213     14212     14214     14216     14215     14217     14219     14218     14220
     14222     14221     14223     14225     14224     14226     14228     14227     14229
     14231     14230     14232     14234     14233     14235     14237     14236     14238
     14240     14239     14241     14243     14242     14244     14246     14245     14247
     14249     14248     14250     14252     14251     14253     14255     14254     14256
     14258     14257     14259     14261     14260     14262     14264     14263     14265
     14267     14266     14268     14270     14269     14271     14273     14272     14274
     14276     14275     14277     14279     14278     14280     14282     14281     14283
     14285     14284     14286     14288     14287     14289     14291     14290     14292
     14294     14293     14295     14297     14296     14298     14300     14299     14301
     14303     14302     14304     14306     14305     14307     14309     14308     14310
     14312     14311     14313     14315     14314     14316     14318     14317     14319
     14321     14320     14322     14324     14323     14325     14327     14326     14328
     14330     14329     14331     14333     14332     14334     14336     14335     14337
     14339     14338     14340     14342     14341     14343     14345     14344     14346
     14348     14347     14349     14351     14350     14352     14354     14353     14355
     14357     14356     14358     14360     14359     14361     14363     14362     14364
     14366     14365     14367     14369     14368     14370     14372     14371     14373
     14375     14374     14376     14378     14377     14379     14381     14380     14382
     14384     14383     14385     14387     14386     14388     14390     14389     14391
     14393     14392     14394     14396     14395     14397     14399     14398     14400
     14402     14401     14403     14405     14404     14406     14408     14407     14409
     14411     14410     14412     14414     14413     14415     14417     14416     14418
     14420     14419     14421     14423     14422     14424     14426     14425     14427
     14429     14428     14430     14432     14431     14433     14435     14434     14436
     14438     14437     14439     14441     14440     14442     14444     14443     14445
     14447     14446     14448     14450     14449     14451     14453     14452     14454
     14456     14455     14457     14459     14458     14460     14462     14461     14463
     14465     14464     14466     14468     14467     14469     14471     14470     14472
     14474     14473     14475     14477     14476     14478     14480     14479     14481
     14483     14482     14484     14486     14485     14487     14489     14488     14490
     14492     14491     14493     14495     14494     14496     14498     14497     14499
     14501     14500     14502     14504     14503     14505     14507     14506     14508
     14510     14509     14511     14513     14512     14514     14516     14515     14517
     14519     14518     14520     14522     14521     14523     14525     14524     14526
     14528     14527     14529     14531     14530     14532     14534     14533     14535
     14537     14536     14538     14540     14539     14541     14543     14542     14544
     14546     14545     14547     14549     14548     14550     14552     14551     14553
     14555     14554     14556     14558     14557     14559     14561     14560     14562
     14564     14563     14565     14567     14566     14568     14570     14569     14571
     14573     14572     14574     14576     14575     14577     14579     14578     14580
     14582     14581     14583     14585     14584     14586     14588     14587     14589
     14591     14590     14592     14594     14593     14595     14597     14596     14598
     14600     14599     14601     14603     14602     14604     14606     14605     14607
     14609     14608     14610     14612     14611     14613     14615     14614     14616
     14618     14617     14619     14621     14620     14622     14624     14623     14625
     14627     14626     14628     14630     14629     14631     14633     14632     14634
     14636     14635     14637     14639     14638     14640     14642     14641     14643
     14645     14644     14646     14648     14647     14649     14651     14650     14652
     14654     14653     14655     14657     14656     14658     14660     14659     14661
     14663     14662     14664     14666     14665     14667     14669     14668     14670
     14672     14671     14673     14675     14674     14676     14678     14677     14679
     14681     14680     14682     14684     14683     14685     14687     14686     14688
     14690     14689     14691     14693     14692     14694     14696     14695     14697
     14699     14698     14700     14702     14701     14703     14705     14704     14706
     14708     14707     14709     14711     14710     14712     14714     14713     14715
     14717     14716     14718     14720     14719     14721     14723     14722     14724
     14726     14725     14727     14729     14728     14730     14732     14731     14733
     14735     14734     14736     14738     14737     14739     14741     14740     14742
     14744     14743     14745     14747     14746     14748     14750     14749     14751
     14753     14752     14754     14756     14755     14757     14759     14758     14760
     14762     14761     14763     14765     14764     14766     14768     14767     14769
     14771     14770     14772     14774     14773     14775     14777     14776     14778
     14780     14779     14781     14783     14782     14784     14786     14785     14787
     14789     14788     14790     14792     14791     14793     14795     14794     14796
     14798     14797     14799     14801     14800     14802     14804     14803     14805
     14807     14806     14808     14810     14809     14811     14813     14812     14814
     14816     14815     14817     14819     14818     14820     14822     14821     14823
     14825     14824     14826     14828     14827     14829     14831     14830     14832
     14834     14833     14835     14837     14836     14838     14840     14839     14841
     14843     14842     14844     14846     14845     14847     14849     14848     14850
     14852     14851     14853     14855     14854     14856     14858     14857     14859
     14861     14860     14862     14864     14863     14865     14867     14866     14868
     14870     14869     14871     14873     14872     14874     14876     14875     14877
     14879     14878     14880     14882     14881     14883     14885     14884     14886
     14888     14887     14889     14891     14890     14892     14894     14893     14895
     14897     14896     14898     14900     14899     14901     14903     14902     14904
     14906     14905     14907     14909     14908     14910     14912     14911     14913
     14915     14914     14916     14918     14917     14919     14921     14920     14922
     14924     14923     14925     14927     14926     14928     14930     14929     14931
     14933     14932     14934     14936     14935     14937     14939     14938     14940
     14942     14941     14943     14945     14944     14946     14948     14947     14949
     14951     14950     14952     14954     14953     14955     14957     14956     14958
     14960     14959     14961     14963     14962     14964     14966     14965     14967
     14969     14968     14970     14972     14971     14973     14975     14974     14976
     14978     14977     14979     14981     14980     14982     14984     14983     14985
     14987     14986     14988     14990     14989     14991     14993     14992     14994
     14996     14995     14997     14999     14998     15000     15002     15001     15003
     15005     15004     15006     15008     15007     15009     15011     15010     15012
     15014     15013     15015     15017     15016     15018     15020     15019     15021
     15023     15022     15024     15026     15025     15027     15029     15028     15030
     15032     15031     15033     15035     15034     15036     15038     15037     15039
     15041     15040     15042     15044     15043     15045     15047     15046     15048
     15050     15049     15051     15053     15052     15054     15056     15055     15057
     15059     15058     15060     15062     15061     15063     15065     15064     15066
     15068     15067     15069     15071     15070     15072     15074     15073     15075
     15077     15076     15078     15080     15079     15081     15083     15082     15084
     15086     15085     15087     15089     15088     15090     15092     15091     15093
     15095     15094     15096     15098     15097     15099     15101     15100     15102
     15104     15103     15105     15107     15106     15108     15110     15109     15111
     15113     15112     15114     15116     15115     15117     15119     15118     15120
     15122     15121     15123     15125     15124     15126     15128     15127     15129
     15131     15130     15132     15134     15133     15135     15137     15136     15138
     15140     15139     15141     15143     15142     15144     15146     15145     15147
     15149     15148     15150     15152     15151     15153     15155     15154     15156
     15158     15157     15159     15161     15160     15162     15164     15163     15165
     15167     15166     15168     15170     15169     15171     15173     15172     15174
     15176     15175     15177     15179     15178     15180     15182     15181     15183
     15185     15184     15186     15188     15187     15189     15191     15190     15192
     15194     15193     15195     15197     15196     15198     15200     15199     15201
     15203     15202     15204     15206     15205     15207     15209     15208     15210
     15212     15211     15213     15215     15214     15216     15218     15217     15219
     15221     15220     15222     15224     15223     15225     15227     15226     15228
     15230     15229     15231     15233     15232     15234     15236     15235     15237
     15239     15238     15240     15242     15241     15243     15245     15244     15246
     15248     15247     15249     15251     15250     15252     15254     15253     15255
     15257     15256     15258     15260     15259     15261     15263     15262     15264
     15266     15265     15267     15269     15268     15270     15272     15271     15273
     15275     15274     15276     15278     15277     15279     15281     15280     15282
     15284     15283     15285     15287     15286     15288     15290     15289     15291
     15293     15292     15294     15296     15295     15297     15299     15298     15300
     15302     15301     15303     15305     15304     15306     15308     15307     15309
     15311     15310     15312     15314     15313     15315     15317     15316     15318
     15320     15319     15321     15323     15322     15324     15326     15325     15327
     15329     15328     15330     15332     15331     15333     15335     15334     15336
     15338     15337     15339     15341     15340     15342     15344     15343     15345
     15347     15346     15348     15350     15349     15351     15353     15352     15354
     15356     15355     15357     15359     15358     15360     15362     15361     15363
     15365     15364     15366     15368     15367     15369     15371     15370     15372
     15374     15373     15375     15377     15376     15378     15380     15379     15381
     15383     15382     15384     15386     15385     15387     15389     15388     15390
     15392     15391     15393     15395     15394     15396     15398     15397     15399
     15401     15400     15402     15404     15403     15405     15407     15406     15408
     15410     15409     15411     15413     15412     15414     15416     15415     15417
     15419     15418     15420     15422     15421     15423     15425     15424     15426
     15428     15427     15429     15431     15430     15432     15434     15433     15435
     15437     15436     15438     15440     15439     15441     15443     15442     15444
     15446     15445     15447     15449     15448     15450     15452     15451     15453
     15455     15454     15456     15458     15457     15459     15461     15460     15462
     15464     15463     15465     15467     15466     15468     15470     15469     15471
     15473     15472     15474     15476     15475     15477     15479     15478     15480
     15482     15481     15483     15485     15484     15486     15488     15487     15489
     15491     15490     15492     15494     15493     15495     15497     15496     15498
     15500     15499     15501     15503     15502     15504     15506     15505     15507
     15509     15508     15510     15512     15511     15513     15515     15514     15516
     15518     15517     15519     15521     15520     15522     15524     15523     15525
     15527     15526     15528     15530     15529     15531     15533     15532     15534
     15536     15535     15537     15539     15538     15540     15542     15541     15543
     15545     15544     15546     15548     15547     15549     15551     15550     15552
     15554     15553     15555     15557     15556     15558     15560     15559     15561
     15563     15562     15564     15566     15565     15567     15569     15568     15570
     15572     15571     15573     15575     15574     15576     15578     15577     15579
     15581     15580     15582     15584     15583     15585     15587     15586     15588
     15590     15589     15591     15593     15592     15594     15596     15595     15597
     15599     15598     15600     15602     15601     15603     15605     15604     15606
     15608     15607     15609     15611     15610     15612     15614     15613     15615
     15617     15616     15618     15620     15619     15621     15623     15622     15624
     15626     15625     15627     15629     15628     15630     15632     15631     15633
     15635     15634     15636     15638     15637     15639     15641     15640     15642
     15644     15643     15645     15647     15646     15648     15650     15649     15651
     15653     15652     15654     15656     15655     15657     15659     15658     15660
     15662     15661     15663     15665     15664     15666     15668     15667     15669
     15671     15670     15672     15674     15673     15675     15677     15676     15678
     15680     15679     15681     15683     15682     15684     15686     15685     15687
     15689     15688     15690     15692     15691     15693     15695     15694     15696
     15698     15697     15699     15701     15700     15702     15704     15703     15705
     15707     15706     15708     15710     15709     15711     15713     15712     15714
     15716     15715     15717     15719     15718     15720     15722     15721     15723
     15725     15724     15726     15728     15727     15729     15731     15730     15732
     15734     15733     15735     15737     15736     15738     15740     15739     15741
     15743     15742     15744     15746     15745     15747     15749     15748     15750
     15752     15751     15753     15755     15754     15756     15758     15757     15759
     15761     15760     15762     15764     15763     15765     15767     15766     15768
     15770     15769     15771     15773     15772     15774     15776     15775     15777
     15779     15778     15780     15782     15781     15783     15785     15784     15786
     15788     15787     15789     15791     15790     15792     15794     15793     15795
     15797     15796     15798     15800     15799     15801     15803     15802     15804
     15806     15805     15807     15809     15808     15810     15812     15811     15813
     15815     15814     15816     15818     15817     15819     15821     15820     15822
     15824     15823     15825     15827     15826     15828     15830     15829     15831
     15833     15832     15834     15836     15835     15837     15839     15838     15840
     15842     15841     15843     15845     15844     15846     15848     15847     15849
     15851     15850     15852     15854     15853     15855     15857     15856     15858
     15860     15859     15861     15863     15862     15864     15866     15865     15867
     15869     15868     15870     15872     15871     15873     15875     15874     15876
     15878     15877     15879     15881     15880     15882     15884     15883     15885
     15887     15886     15888     15890     15889     15891     15893     15892     15894
     15896     15895     15897     15899     15898     15900     15902     15901     15903
     15905     15904     15906     15908     15907     15909     15911     15910     15912
     15914     15913     15915     15917     15916     15918     15920     15919     15921
     15923     15922     15924     15926     15925     15927     15929     15928     15930
     15932     15931     15933     15935     15934     15936     15938     15937     15939
     15941     15940     15942     15944     15943     15945     15947     15946     15948
     15950     15949     15951     15953     15952     15954     15956     15955     15957
     15959     15958     15960     15962     15961     15963     15965     15964     15966
     15968     15967     15969     15971     15970     15972     15974     15973     15975
     15977     15976     15978     15980     15979     15981     15983     15982     15984
     15986     15985     15987     15989     15988     15990     15992     15991     15993
     15995     15994     15996     15998     15997     15999     16001     16000     16002
     16004     16003     16005     16007     16006     16008     16010     16009     16011
     16013     16012     16014     16016     16015     16017     16019     16018     16020
     16022     16021     16023     16025     16024     16026     16028     16027     16029
     16031     16030     16032     16034     16033     16035     16037     16036     16038
     16040     16039     16041     16043     16042     16044     16046     16045     16047
     16049     16048     16050     16052     16051     16053     16055     16054     16056
     16058     16057     16059     16061     16060     16062     16064     16063     16065
     16067     16066     16068     16070     16069     16071     16073     16072     16074
     16076     16075     16077     16079     16078     16080     16082     16081     16083
     16085     16084     16086     16088     16087     16089     16091     16090     16092
     16094     16093     16095     16097     16096     16098     16100     16099     16101
     16103     16102     16104     16106     16105     16107     16109     16108     16110
     16112     16111     16113     16115     16114     16116     16118     16117     16119
     16121     16120     16122     16124     16123     16125     16127     16126     16128
     16130     16129     16131     16133     16132     16134     16136     16135     16137
     16139     16138     16140     16142     16141     16143     16145     16144     16146
     16148     16147     16149     16151     16150     16152     16154     16153     16155
     16157     16156     16158     16160     16159     16161     16163     16162     16164
     16166     16165     16167     16169     16168     16170     16172     16171     16173
     16175     16174     16176     16178     16177     16179     16181     16180     16182
     16184     16183     16185     16187     16186     16188     16190     16189     16191
     16193     16192     16194     16196     16195     16197     16199     16198     16200
     16202     16201     16203     16205     16204     16206     16208     16207     16209
     16211     16210     16212     16214     16213     16215     16217     16216     16218
     16220     16219     16221     16223     16222     16224     16226     16225     16227
     16229     16228     16230     16232     16231     16233     16235     16234     16236
     16238     16237     16239     16241     16240     16242     16244     16243     16245
     16247     16246     16248     16250     16249     16251     16253     16252     16254
     16256     16255     16257     16259     16258     16260     16262     16261     16263
     16265     16264     16266     16268     16267     16269     16271     16270     16272
     16274     16273     16275     16277     16276     16278     16280     16279     16281
     16283     16282     16284     16286     16285     16287     16289     16288     16290
     16292     16291     16293     16295     16294     16296     16298     16297     16299
     16301     16300     16302     16304     16303     16305     16307     16306     16308
     16310     16309     16311     16313     16312     16314     16316     16315     16317
     16319     16318     16320     16322     16321     16323     16325     16324     16326
     16328     16327     16329     16331     16330     16332     16334     16333     16335
     16337     16336     16338     16340     16339     16341     16343     16342     16344
     16346     16345     16347     16349     16348     16350     16352     16351     16353
     16355     16354     16356     16358     16357     16359     16361     16360     16362
     16364     16363     16365     16367     16366     16368     16370     16369     16371
     16373     16372     16374     16376     16375     16377     16379     16378     16380
     16382     16381     16383     16385     16384     16386     16388     16387     16389
     16391     16390     16392     16394     16393     16395     16397     16396     16398
     16400     16399     16401     16403     16402     16404     16406     16405     16407
     16409     16408     16410     16412     16411     16413     16415     16414     16416
     16418     16417     16419     16421     16420     16422     16424     16423     16425
     16427     16426     16428     16430     16429     16431     16433     16432     16434
     16436     16435     16437     16439     16438     16440     16442     16441     16443
     16445     16444     16446     16448     16447     16449     16451     16450     16452
     16454     16453     16455     16457     16456     16458     16460     16459     16461
     16463     16462     16464     16466     16465     16467     16469     16468     16470
     16472     16471     16473     16475     16474     16476     16478     16477     16479
     16481     16480     16482     16484     16483     16485     16487     16486     16488
     16490     16489     16491     16493     16492     16494     16496     16495     16497
     16499     16498     16500     16502     16501     16503     16505     16504     16506
     16508     16507     16509     16511     16510     16512     16514     16513     16515
     16517     16516     16518     16520     16519     16521     16523     16522     16524
     16526     16525     16527     16529     16528     16530     16532     16531     16533
     16535     16534     16536     16538     16537     16539     16541     16540     16542
     16544     16543     16545     16547     16546     16548     16550     16549     16551
     16553     16552     16554     16556     16555     16557     16559     16558     16560
     16562     16561     16563     16565     16564     16566     16568     16567     16569
     16571     16570     16572     16574     16573     16575     16577     16576     16578
     16580     16579     16581     16583     16582     16584     16586     16585     16587
     16589     16588     16590     16592     16591     16593     16595     16594     16596
     16598     16597     16599     16601     16600     16602     16604     16603     16605
     16607     16606     16608     16610     16609     16611     16613     16612     16614
     16616     16615     16617     16619     16618     16620     16622     16621     16623
     16625     16624     16626     16628     16627     16629     16631     16630     16632
     16634     16633     16635     16637     16636     16638     16640     16639     16641
     16643     16642     16644     16646     16645     16647     16649     16648     16650
     16652     16651     16653     16655     16654     16656     16658     16657     16659
     16661     16660     16662     16664     16663     16665     16667     16666     16668
     16670     16669     16671     16673     16672     16674     16676     16675     16677
     16679     16678     16680     16682     16681     16683     16685     16684     16686
     16688     16687     16689     16691     16690     16692     16694     16693     16695
     16697     16696     16698     16700     16699     16701     16703     16702     16704
     16706     16705     16707     16709     16708     16710     16712     16711     16713
     16715     16714     16716     16718     16717     16719     16721     16720     16722
     16724     16723     16725     16727     16726     16728     16730     16729     16731
     16733     16732     16734     16736     16735     16737     16739     16738     16740
     16742     16741     16743     16745     16744     16746     16748     16747     16749
     16751     16750     16752     16754     16753     16755     16757     16756     16758
     16760     16759     16761     16763     16762     16764     16766     16765     16767
     16769     16768     16770     16772     16771     16773     16775     16774     16776
     16778     16777     16779     16781     16780     16782     16784     16783     16785
     16787     16786     16788     16790     16789     16791     16793     16792     16794
     16796     16795     16797     16799     16798     16800     16802     16801     16803
     16805     16804     16806     16808     16807     16809     16811     16810     16812
     16814     16813     16815     16817     16816     16818     16820     16819     16821
     16823     16822     16824     16826     16825     16827     16829     16828     16830
     16832     16831     16833     16835     16834     16836     16838     16837     16839
     16841     16840     16842     16844     16843     16845     16847     16846     16848
     16850     16849     16851     16853     16852     16854     16856     16855     16857
     16859     16858     16860     16862     16861     16863     16865     16864     16866
     16868     16867     16869     16871     16870     16872     16874     16873     16875
     16877     16876     16878     16880     16879     16881     16883     16882     16884
     16886     16885     16887     16889     16888     16890     16892     16891     16893
     16895     16894     16896     16898     16897     16899     16901     16900     16902
     16904     16903     16905     16907     16906     16908     16910     16909     16911
     16913     16912     16914     16916     16915     16917     16919     16918     16920
     16922     16921     16923     16925     16924     16926     16928     16927     16929
     16931     16930     16932     16934     16933     16935     16937     16936     16938
     16940     16939     16941     16943     16942     16944     16946     16945     16947
     16949     16948     16950     16952     16951     16953     16955     16954     16956
     16958     16957     16959     16961     16960     16962     16964     16963     16965
     16967     16966     16968     16970     16969     16971     16973     16972     16974
     16976     16975     16977     16979     16978     16980     16982     16981     16983
     16985     16984     16986     16988     16987     16989     16991     16990     16992
     16994     16993     16995     16997     16996     16998     17000     16999     17001
     17003     17002     17004     17006     17005     17007     17009     17008     17010
     17012     17011     17013     17015     17014     17016     17018     17017     17019
     17021     17020     17022     17024     17023     17025     17027     17026     17028
     17030     17029     17031     17033     17032     17034     17036     17035     17037
     17039     17038     17040     17042     17041     17043     17045     17044     17046
     17048     17047     17049     17051     17050     17052     17054     17053     17055
     17057     17056     17058     17060     17059     17061     17063     17062     17064
     17066     17065     17067     17069     17068     17070     17072     17071     17073
     17075     17074     17076     17078     17077     17079     17081     17080     17082
     17084     17083     17085     17087     17086     17088     17090     17089     17091
     17093     17092     17094     17096     17095     17097     17099     17098     17100
     17102     17101     17103     17105     17104     17106     17108     17107     17109
     17111     17110     17112     17114     17113     17115     17117     17116     17118
     17120     17119     17121     17123     17122     17124     17126     17125     17127
     17129     17128     17130     17132     17131     17133     17135     17134     17136
     17138     17137     17139     17141     17140     17142     17144     17143     17145
     17147     17146     17148     17150     17149     17151     17153     17152     17154
     17156     17155     17157     17159     17158     17160     17162     17161     17163
     17165     17164     17166     17168     17167     17169     17171     17170     17172
     17174     17173     17175     17177     17176     17178     17180     17179     17181
     17183     17182     17184     17186     17185     17187     17189     17188     17190
     17192     17191     17193     17195     17194     17196     17198     17197     17199
     17201     17200     17202     17204     17203     17205     17207     17206     17208
     17210     17209     17211     17213     17212     17214     17216     17215     17217
     17219     17218     17220     17222     17221     17223     17225     17224     17226
     17228     17227     17229     17231     17230     17232     17234     17233     17235
     17237     17236     17238     17240     17239     17241     17243     17242     17244
     17246     17245     17247     17249     17248     17250     17252     17251     17253
     17255     17254     17256     17258     17257     17259     17261     17260     17262
     17264     17263     17265     17267     17266     17268     17270     17269     17271
     17273     17272     17274     17276     17275     17277     17279     17278     17280
     17282     17281     17283     17285     17284     17286     17288     17287     17289
     17291     17290     17292     17294     17293     17295     17297     17296     17298
     17300     17299     17301     17303     17302     17304     17306     17305     17307
     17309     17308     17310     17312     17311     17313     17315     17314     17316
     17318     17317     17319     17321     17320     17322     17324     17323     17325
     17327     17326     17328     17330     17329     17331     17333     17332     17334
     17336     17335     17337     17339     17338     17340     17342     17341     17343
     17345     17344     17346     17348     17347     17349     17351     17350     17352
     17354     17353     17355     17357     17356     17358     17360     17359     17361
     17363     17362     17364     17366     17365     17367     17369     17368     17370
     17372     17371     17373     17375     17374     17376     17378     17377     17379
     17381     17380     17382     17384     17383     17385     17387     17386     17388
     17390     17389     17391     17393     17392     17394     17396     17395     17397
     17399     17398     17400     17402     17401     17403     17405     17404     17406
     17408     17407     17409     17411     17410     17412     17414     17413     17415
     17417     17416     17418     17420     17419     17421     17423     17422     17424
     17426     17425     17427     17429     17428     17430     17432     17431     17433
     17435     17434     17436     17438     17437     17439     17441     17440     17442
     17444     17443     17445     17447     17446     17448     17450     17449     17451
     17453     17452     17454     17456     17455     17457     17459     17458     17460
     17462     17461     17463     17465     17464     17466     17468     17467     17469
     17471     17470     17472     17474     17473     17475     17477     17476     17478
     17480     17479     17481     17483     17482     17484     17486     17485     17487
     17489     17488     17490     17492     17491     17493     17495     17494     17496
     17498     17497     17499     17501     17500     17502     17504     17503     17505
     17507     17506     17508     17510     17509     17511     17513     17512     17514
     17516     17515     17517     17519     17518     17520     17522     17521     17523
     17525     17524     17526     17528     17527     17529     17531     17530     17532
     17534     17533     17535     17537     17536     17538     17540     17539     17541
     17543     17542     17544     17546     17545     17547     17549     17548     17550
     17552     17551     17553     17555     17554     17556     17558     17557     17559
     17561     17560     17562     17564     17563     17565     17567     17566     17568
     17570     17569     17571     17573     17572     17574     17576     17575     17577
     17579     17578     17580     17582     17581     17583     17585     17584     17586
     17588     17587     17589     17591     17590     17592     17594     17593     17595
     17597     17596     17598     17600     17599     17601     17603     17602     17604
     17606     17605     17607     17609     17608     17610     17612     17611     17613
     17615     17614     17616     17618     17617     17619     17621     17620     17622
     17624     17623     17625     17627     17626     17628     17630     17629     17631
     17633     17632     17634     17636     17635     17637     17639     17638     17640
     17642     17641     17643     17645     17644     17646     17648     17647     17649
     17651     17650     17652     17654     17653     17655     17657     17656     17658
     17660     17659     17661     17663     17662     17664     17666     17665     17667
     17669     17668     17670     17672     17671     17673     17675     17674     17676
     17678     17677     17679     17681     17680     17682     17684     17683     17685
     17687     17686     17688     17690     17689     17691     17693     17692     17694
     17696     17695     17697     17699     17698     17700     17702     17701     17703
     17705     17704     17706     17708     17707     17709     17711     17710     17712
     17714     17713     17715     17717     17716     17718     17720     17719     17721
     17723     17722     17724     17726     17725     17727     17729     17728     17730
     17732     17731     17733     17735     17734     17736     17738     17737     17739
     17741     17740     17742     17744     17743     17745     17747     17746     17748
     17750     17749     17751     17753     17752     17754     17756     17755     17757
     17759     17758     17760     17762     17761     17763     17765     17764     17766
     17768     17767     17769     17771     17770     17772     17774     17773     17775
     17777     17776     17778     17780     17779     17781     17783     17782     17784
     17786     17785     17787     17789     17788     17790     17792     17791     17793
     17795     17794     17796     17798     17797     17799     17801     17800     17802
     17804     17803     17805     17807     17806     17808     17810     17809     17811
     17813     17812     17814     17816     17815     17817     17819     17818     17820
     17822     17821     17823     17825     17824     17826     17828     17827     17829
     17831     17830     17832     17834     17833     17835     17837     17836     17838
     17840     17839     17841     17843     17842     17844     17846     17845     17847
     17849     17848     17850     17852     17851     17853     17855     17854     17856
     17858     17857     17859     17861     17860     17862     17864     17863     17865
     17867     17866     17868     17870     17869     17871     17873     17872     17874
     17876     17875     17877     17879     17878     17880     17882     17881     17883
     17885     17884     17886     17888     17887     17889     17891     17890     17892
     17894     17893     17895     17897     17896     17898     17900     17899     17901
     17903     17902     17904     17906     17905     17907     17909     17908     17910
     17912     17911     17913     17915     17914     17916     17918     17917     17919
     17921     17920     17922     17924     17923     17925     17927     17926     17928
     17930     17929     17931     17933     17932     17934     17936     17935     17937
     17939     17938     17940     17942     17941     17943     17945     17944     17946
     17948     17947     17949     17951     17950     17952     17954     17953     17955
     17957     17956     17958     17960     17959     17961     17963     17962     17964
     17966     17965     17967     17969     17968     17970     17972     17971     17973
     17975     17974     17976     17978     17977     17979     17981     17980     17982
     17984     17983     17985     17987     17986     17988     17990     17989     17991
     17993     17992     17994     17996     17995     17997     17999     17998     18000
     18002     18001     18003     18005     18004     18006     18008     18007     18009
     18011     18010     18012     18014     18013     18015     18017     18016     18018
     18020     18019     18021     18023     18022     18024     18026     18025     18027
     18029     18028     18030     18032     18031     18033     18035     18034     18036
     18038     18037     18039     18041     18040     18042     18044     18043     18045
     18047     18046     18048     18050     18049     18051     18053     18052     18054
     18056     18055     18057     18059     18058     18060     18062     18061     18063
     18065     18064     18066     18068     18067     18069     18071     18070     18072
     18074     18073     18075     18077     18076     18078     18080     18079     18081
     18083     18082     18084     18086     18085     18087     18089     18088     18090
     18092     18091     18093     18095     18094     18096     18098     18097     18099
     18101     18100     18102     18104     18103     18105     18107     18106     18108
     18110     18109     18111     18113     18112     18114     18116     18115     18117
     18119     18118     18120     18122     18121     18123     18125     18124     18126
     18128     18127     18129     18131     18130     18132     18134     18133     18135
     18137     18136     18138     18140     18139     18141     18143     18142     18144
     18146     18145     18147     18149     18148     18150     18152     18151     18153
     18155     18154     18156     18158     18157     18159     18161     18160     18162
     18164     18163     18165     18167     18166     18168     18170     18169     18171
     18173     18172     18174     18176     18175     18177     18179     18178     18180
     18182     18181     18183     18185     18184     18186     18188     18187     18189
     18191     18190     18192     18194     18193     18195     18197     18196     18198
     18200     18199     18201     18203     18202     18204     18206     18205     18207
     18209     18208     18210     18212     18211     18213     18215     18214     18216
     18218     18217     18219     18221     18220     18222     18224     18223     18225
     18227     18226     18228     18230     18229     18231     18233     18232     18234
     18236     18235     18237     18239     18238     18240     18242     18241     18243
     18245     18244     18246     18248     18247     18249     18251     18250     18252
     18254     18253     18255     18257     18256     18258     18260     18259     18261
     18263     18262     18264     18266     18265     18267     18269     18268     18270
     18272     18271     18273     18275     18274     18276     18278     18277     18279
     18281     18280     18282     18284     18283     18285     18287     18286     18288
     18290     18289     18291     18293     18292     18294     18296     18295     18297
     18299     18298     18300     18302     18301     18303     18305     18304     18306
     18308     18307     18309     18311     18310     18312     18314     18313     18315
     18317     18316     18318     18320     18319     18321     18323     18322     18324
     18326     18325     18327     18329     18328     18330     18332     18331     18333
     18335     18334     18336     18338     18337     18339     18341     18340     18342
     18344     18343     18345     18347     18346     18348     18350     18349     18351
     18353     18352     18354     18356     18355     18357     18359     18358     18360
     18362     18361     18363     18365     18364     18366     18368     18367     18369
     18371     18370     18372     18374     18373     18375     18377     18376     18378
     18380     18379     18381     18383     18382     18384     18386     18385     18387
     18389     18388     18390     18392     18391     18393     18395     18394     18396
     18398     18397     18399     18401     18400     18402     18404     18403     18405
     18407     18406     18408     18410     18409     18411     18413     18412     18414
     18416     18415     18417     18419     18418     18420     18422     18421     18423
     18425     18424     18426     18428     18427     18429     18431     18430     18432
     18434     18433     18435     18437     18436     18438     18440     18439     18441
     18443     18442     18444     18446     18445     18447     18449     18448     18450
     18452     18451     18453     18455     18454     18456     18458     18457     18459
     18461     18460     18462     18464     18463     18465     18467     18466     18468
     18470     18469     18471     18473     18472     18474     18476     18475     18477
     18479     18478     18480     18482     18481     18483     18485     18484     18486
     18488     18487     18489     18491     18490     18492     18494     18493     18495
     18497     18496     18498     18500     18499     18501     18503     18502     18504
     18506     18505     18507     18509     18508     18510     18512     18511     18513
     18515     18514     18516     18518     18517     18519     18521     18520     18522
     18524     18523     18525     18527     18526     18528     18530     18529     18531
     18533     18532     18534     18536     18535     18537     18539     18538     18540
     18542     18541     18543     18545     18544     18546     18548     18547     18549
     18551     18550     18552     18554     18553     18555     18557     18556     18558
     18560     18559     18561     18563     18562     18564     18566     18565     18567
     18569     18568     18570     18572     18571     18573     18575     18574     18576
     18578     18577     18579     18581     18580     18582     18584     18583     18585
     18587     18586     18588     18590     18589     18591     18593     18592     18594
     18596     18595     18597     18599     18598     18600     18602     18601     18603
     18605     18604     18606     18608     18607     18609     18611     18610     18612
     18614     18613     18615     18617     18616     18618     18620     18619     18621
     18623     18622     18624     18626     18625     18627     18629     18628     18630
     18632     18631     18633     18635     18634     18636     18638     18637     18639
     18641     18640     18642     18644     18643     18645     18647     18646     18648
     18650     18649     18651     18653     18652     18654     18656     18655     18657
     18659     18658     18660     18662     18661     18663     18665     18664     18666
     18668     18667     18669     18671     18670     18672     18674     18673     18675
     18677     18676     18678     18680     18679     18681     18683     18682     18684
     18686     18685     18687     18689     18688     18690     18692     18691     18693
     18695     18694     18696     18698     18697     18699     18701     18700     18702
     18704     18703     18705     18707     18706     18708     18710     18709     18711
     18713     18712     18714     18716     18715     18717     18719     18718     18720
     18722     18721     18723     18725     18724     18726     18728     18727     18729
     18731     18730     18732     18734     18733     18735     18737     18736     18738
     18740     18739     18741     18743     18742     18744     18746     18745     18747
     18749     18748     18750     18752     18751     18753     18755     18754     18756
     18758     18757     18759     18761     18760     18762     18764     18763     18765
     18767     18766     18768     18770     18769     18771     18773     18772     18774
     18776     18775     18777     18779     18778     18780     18782     18781     18783
     18785     18784     18786     18788     18787     18789     18791     18790     18792
     18794     18793     18795     18797     18796     18798     18800     18799     18801
     18803     18802     18804     18806     18805     18807     18809     18808     18810
     18812     18811     18813     18815     18814     18816     18818     18817     18819
     18821     18820     18822     18824     18823     18825     18827     18826     18828
     18830     18829     18831     18833     18832     18834     18836     18835     18837
     18839     18838     18840     18842     18841     18843     18845     18844     18846
     18848     18847     18849     18851     18850     18852     18854     18853     18855
     18857     18856     18858     18860     18859     18861     18863     18862     18864
     18866     18865     18867     18869     18868     18870     18872     18871     18873
     18875     18874     18876     18878     18877     18879     18881     18880     18882
     18884     18883     18885     18887     18886     18888     18890     18889     18891
     18893     18892     18894     18896     18895     18897     18899     18898     18900
     18902     18901     18903     18905     18904     18906     18908     18907     18909
     18911     18910     18912     18914     18913     18915     18917     18916     18918
     18920     18919     18921     18923     18922     18924     18926     18925     18927
     18929     18928     18930     18932     18931     18933     18935     18934     18936
     18938     18937     18939     18941     18940     18942     18944     18943     18945
     18947     18946     18948     18950     18949     18951     18953     18952     18954
     18956     18955     18957     18959     18958     18960     18962     18961     18963
     18965     18964     18966     18968     18967     18969     18971     18970     18972
     18974     18973     18975     18977     18976     18978     18980     18979     18981
     18983     18982     18984     18986     18985     18987     18989     18988     18990
     18992     18991     18993     18995     18994     18996     18998     18997     18999
     19001     19000     19002     19004     19003     19005     19007     19006     19008
     19010     19009     19011     19013     19012     19014     19016     19015     19017
     19019     19018     19020     19022     19021     19023     19025     19024     19026
     19028     19027     19029     19031     19030     19032     19034     19033     19035
     19037     19036     19038     19040     19039     19041     19043     19042     19044
     19046     19045     19047     19049     19048     19050     19052     19051     19053
     19055     19054     19056     19058     19057     19059     19061     19060     19062
     19064     19063     19065     19067     19066     19068     19070     19069     19071
     19073     19072     19074     19076     19075     19077     19079     19078     19080
     19082     19081     19083     19085     19084     19086     19088     19087     19089
     19091     19090     19092     19094     19093     19095     19097     19096     19098
     19100     19099     19101     19103     19102     19104     19106     19105     19107
     19109     19108     19110     19112     19111     19113     19115     19114     19116
     19118     19117     19119     19121     19120     19122     19124     19123     19125
     19127     19126     19128     19130     19129     19131     19133     19132     19134
     19136     19135     19137     19139     19138     19140     19142     19141     19143
     19145     19144     19146     19148     19147     19149     19151     19150     19152
     19154     19153     19155     19157     19156     19158     19160     19159     19161
     19163     19162     19164     19166     19165     19167     19169     19168     19170
     19172     19171     19173     19175     19174     19176     19178     19177     19179
     19181     19180     19182     19184     19183     19185     19187     19186     19188
     19190     19189     19191     19193     19192     19194     19196     19195     19197
     19199     19198     19200     19202     19201     19203     19205     19204     19206
     19208     19207     19209     19211     19210     19212     19214     19213     19215
     19217     19216     19218     19220     19219     19221     19223     19222     19224
     19226     19225     19227     19229     19228     19230     19232     19231     19233
     19235     19234     19236     19238     19237     19239     19241     19240     19242
     19244     19243     19245     19247     19246     19248     19250     19249     19251
     19253     19252     19254     19256     19255     19257     19259     19258     19260
     19262     19261     19263     19265     19264     19266     19268     19267     19269
     19271     19270     19272     19274     19273     19275     19277     19276     19278
     19280     19279     19281     19283     19282     19284     19286     19285     19287
     19289     19288     19290     19292     19291     19293     19295     19294     19296
     19298     19297     19299     19301     19300     19302     19304     19303     19305
     19307     19306     19308     19310     19309     19311     19313     19312     19314
     19316     19315     19317     19319     19318     19320     19322     19321     19323
     19325     19324     19326     19328     19327     19329     19331     19330     19332
     19334     19333     19335     19337     19336     19338     19340     19339     19341
     19343     19342     19344     19346     19345     19347     19349     19348     19350
     19352     19351     19353     19355     19354     19356     19358     19357     19359
     19361     19360     19362     19364     19363     19365     19367     19366     19368
     19370     19369     19371     19373     19372     19374     19376     19375     19377
     19379     19378     19380     19382     19381     19383     19385     19384     19386
     19388     19387     19389     19391     19390     19392     19394     19393     19395
     19397     19396     19398     19400     19399     19401     19403     19402     19404
     19406     19405     19407     19409     19408     19410     19412     19411     19413
     19415     19414     19416     19418     19417     19419     19421     19420     19422
     19424     19423     19425     19427     19426     19428     19430     19429     19431
     19433     19432     19434     19436     19435     19437     19439     19438     19440
     19442     19441     19443     19445     19444     19446     19448     19447     19449
     19451     19450     19452     19454     19453     19455     19457     19456     19458
     19460     19459     19461     19463     19462     19464     19466     19465     19467
     19469     19468     19470     19472     19471     19473     19475     19474     19476
     19478     19477     19479     19481     19480     19482     19484     19483     19485
     19487     19486     19488     19490     19489     19491     19493     19492     19494
     19496     19495     19497     19499     19498     19500     19502     19501     19503
     19505     19504     19506     19508     19507     19509     19511     19510     19512
     19514     19513     19515     19517     19516     19518     19520     19519     19521
     19523     19522     19524     19526     19525     19527     19529     19528     19530
     19532     19531     19533     19535     19534     19536     19538     19537     19539
     19541     19540     19542     19544     19543     19545     19547     19546     19548
     19550     19549     19551     19553     19552     19554     19556     19555     19557
     19559     19558     19560     19562     19561     19563     19565     19564     19566
     19568     19567     19569     19571     19570     19572     19574     19573     19575
     19577     19576     19578     19580     19579     19581     19583     19582     19584
     19586     19585     19587     19589     19588     19590     19592     19591     19593
     19595     19594     19596     19598     19597     19599     19601     19600     19602
     19604     19603     19605     19607     19606     19608     19610     19609     19611
     19613     19612     19614     19616     19615     19617     19619     19618     19620
     19622     19621     19623     19625     19624     19626     19628     19627     19629
     19631     19630     19632     19634     19633     19635     19637     19636     19638
     19640     19639     19641     19643     19642     19644     19646     19645     19647
     19649     19648     19650     19652     19651     19653     19655     19654     19656
     19658     19657     19659     19661     19660     19662     19664     19663     19665
     19667     19666     19668     19670     19669     19671     19673     19672     19674
     19676     19675     19677     19679     19678     19680     19682     19681     19683
     19685     19684     19686     19688     19687     19689     19691     19690     19692
     19694     19693     19695     19697     19696     19698     19700     19699     19701
     19703     19702     19704     19706     19705     19707     19709     19708     19710
     19712     19711     19713     19715     19714     19716     19718     19717     19719
     19721     19720     19722     19724     19723     19725     19727     19726     19728
     19730     19729     19731     19733     19732     19734     19736     19735     19737
     19739     19738     19740     19742     19741     19743     19745     19744     19746
     19748     19747     19749     19751     19750     19752     19754     19753     19755
     19757     19756     19758     19760     19759     19761     19763     19762     19764
     19766     19765     19767     19769     19768     19770     19772     19771     19773
     19775     19774     19776     19778     19777     19779     19781     19780     19782
     19784     19783     19785     19787     19786     19788     19790     19789     19791
     19793     19792     19794     19796     19795     19797     19799     19798     19800
     19802     19801     19803     19805     19804     19806     19808     19807     19809
     19811     19810     19812     19814     19813     19815     19817     19816     19818
     19820     19819     19821     19823     19822     19824     19826     19825     19827
     19829     19828     19830     19832     19831     19833     19835     19834     19836
     19838     19837     19839     19841     19840     19842     19844     19843     19845
     19847     19846     19848     19850     19849     19851     19853     19852     19854
     19856     19855     19857     19859     19858     19860     19862     19861     19863
     19865     19864     19866     19868     19867     19869     19871     19870     19872
     19874     19873     19875     19877     19876     19878     19880     19879     19881
     19883     19882     19884     19886     19885     19887     19889     19888     19890
     19892     19891     19893     19895     19894     19896     19898     19897     19899
     19901     19900     19902     19904     19903     19905     19907     19906     19908
     19910     19909     19911     19913     19912     19914     19916     19915     19917
     19919     19918     19920     19922     19921     19923     19925     19924     19926
     19928     19927     19929     19931     19930     19932     19934     19933     19935
     19937     19936     19938     19940     19939     19941     19943     19942     19944
     19946     19945     19947     19949     19948     19950     19952     19951     19953
     19955     19954     19956     19958     19957     19959     19961     19960     19962
     19964     19963     19965     19967     19966     19968     19970     19969     19971
     19973     19972     19974     19976     19975     19977     19979     19978     19980
     19982     19981     19983     19985     19984     19986     19988     19987     19989
     19991     19990     19992     19994     19993     19995     19997     19996     19998
     20000     19999     20001     20003     20002     20004     20006     20005     20007
     20009     20008     20010     20012     20011     20013     20015     20014     20016
     20018     20017     20019     20021     20020     20022     20024     20023     20025
     20027     20026     20028     20030     20029     20031     20033     20032     20034
     20036     20035     20037     20039     20038     20040     20042     20041     20043
     20045     20044     20046     20048     20047     20049     20051     20050     20052
     20054     20053     20055     20057     20056     20058     20060     20059     20061
     20063     20062     20064     20066     20065     20067     20069     20068     20070
     20072     20071     20073     20075     20074     20076     20078     20077     20079
     20081     20080     20082     20084     20083     20085     20087     20086     20088
     20090     20089     20091     20093     20092     20094     20096     20095     20097
     20099     20098     20100     20102     20101     20103     20105     20104     20106
     20108     20107     20109     20111     20110     20112     20114     20113     20115
     20117     20116     20118     20120     20119     20121     20123     20122     20124
     20126     20125     20127     20129     20128     20130     20132     20131     20133
     20135     20134     20136     20138     20137     20139     20141     20140     20142
     20144     20143     20145     20147     20146     20148     20150     20149     20151
     20153     20152     20154     20156     20155     20157     20159     20158     20160
     20162     20161     20163     20165     20164     20166     20168     20167     20169
     20171     20170     20172     20174     20173     20175     20177     20176     20178
     20180     20179     20181     20183     20182     20184     20186     20185     20187
     20189     20188     20190     20192     20191     20193     20195     20194     20196
     20198     20197     20199     20201     20200     20202     20204     20203     20205
     20207     20206     20208     20210     20209     20211     20213     20212     20214
     20216     20215     20217     20219     20218     20220     20222     20221     20223
     20225     20224     20226     20228     20227     20229     20231     20230     20232
     20234     20233     20235     20237     20236     20238     20240     20239     20241
     20243     20242     20244     20246     20245     20247     20249     20248     20250
     20252     20251     20253     20255     20254     20256     20258     20257     20259
     20261     20260     20262     20264     20263     20265     20267     20266     20268
     20270     20269     20271     20273     20272     20274     20276     20275     20277
     20279     20278     20280     20282     20281     20283     20285     20284     20286
     20288     20287     20289     20291     20290     20292     20294     20293     20295
     20297     20296     20298     20300     20299     20301     20303     20302     20304
     20306     20305     20307     20309     20308     20310     20312     20311     20313
     20315     20314     20316     20318     20317     20319     20321     20320     20322
     20324     20323     20325     20327     20326     20328     20330     20329     20331
     20333     20332     20334     20336     20335     20337     20339     20338     20340
     20342     20341     20343     20345     20344     20346     20348     20347     20349
     20351     20350     20352     20354     20353     20355     20357     20356     20358
     20360     20359     20361     20363     20362     20364     20366     20365     20367
     20369     20368     20370     20372     20371     20373     20375     20374     20376
     20378     20377     20379     20381     20380     20382     20384     20383     20385
     20387     20386     20388     20390     20389     20391     20393     20392     20394
     20396     20395     20397     20399     20398     20400     20402     20401     20403
     20405     20404     20406     20408     20407     20409     20411     20410     20412
     20414     20413     20415     20417     20416     20418     20420     20419     20421
     20423     20422     20424     20426     20425     20427     20429     20428     20430
     20432     20431     20433     20435     20434     20436     20438     20437     20439
     20441     20440     20442     20444     20443     20445     20447     20446     20448
     20450     20449     20451     20453     20452     20454     20456     20455     20457
     20459     20458     20460     20462     20461     20463     20465     20464     20466
     20468     20467     20469     20471     20470     20472     20474     20473     20475
     20477     20476     20478     20480     20479     20481     20483     20482     20484
     20486     20485     20487     20489     20488     20490     20492     20491     20493
     20495     20494     20496     20498     20497     20499     20501     20500     20502
     20504     20503     20505     20507     20506     20508     20510     20509     20511
     20513     20512     20514     20516     20515     20517     20519     20518     20520
     20522     20521     20523     20525     20524     20526     20528     20527     20529
     20531     20530     20532     20534     20533     20535     20537     20536     20538
     20540     20539     20541     20543     20542     20544     20546     20545     20547
     20549     20548     20550     20552     20551     20553     20555     20554     20556
     20558     20557     20559     20561     20560     20562     20564     20563     20565
     20567     20566     20568     20570     20569     20571     20573     20572     20574
     20576     20575     20577     20579     20578     20580     20582     20581     20583
     20585     20584     20586     20588     20587     20589     20591     20590     20592
     20594     20593     20595     20597     20596     20598     20600     20599     20601
     20603     20602     20604     20606     20605     20607     20609     20608     20610
     20612     20611     20613     20615     20614     20616     20618     20617     20619
     20621     20620     20622     20624     20623     20625     20627     20626     20628
     20630     20629     20631     20633     20632     20634     20636     20635     20637
     20639     20638     20640     20642     20641     20643     20645     20644     20646
     20648     20647     20649     20651     20650     20652     20654     20653     20655
     20657     20656     20658     20660     20659     20661     20663     20662     20664
     20666     20665     20667     20669     20668     20670     20672     20671     20673
     20675     20674     20676     20678     20677     20679     20681     20680     20682
     20684     20683     20685     20687     20686     20688     20690     20689     20691
     20693     20692     20694     20696     20695     20697     20699     20698     20700
     20702     20701     20703     20705     20704     20706     20708     20707     20709
     20711     20710     20712     20714     20713     20715     20717     20716     20718
     20720     20719     20721     20723     20722     20724     20726     20725     20727
     20729     20728     20730     20732     20731     20733     20735     20734     20736
     20738     20737     20739     20741     20740     20742     20744     20743     20745
     20747     20746     20748     20750     20749     20751     20753     20752     20754
     20756     20755     20757     20759     20758     20760     20762     20761     20763
     20765     20764     20766     20768     20767     20769     20771     20770     20772
     20774     20773     20775     20777     20776     20778     20780     20779     20781
     20783     20782     20784     20786     20785     20787     20789     20788     20790
     20792     20791     20793     20795     20794     20796     20798     20797     20799
     20801     20800     20802     20804     20803     20805     20807     20806     20808
     20810     20809     20811     20813     20812     20814     20816     20815     20817
     20819     20818     20820     20822     20821     20823     20825     20824     20826
     20828     20827     20829     20831     20830     20832     20834     20833     20835
     20837     20836     20838     20840     20839     20841     20843     20842     20844
     20846     20845     20847     20849     20848     20850     20852     20851     20853
     20855     20854     20856     20858     20857     20859     20861     20860     20862
     20864     20863     20865     20867     20866     20868     20870     20869     20871
     20873     20872     20874     20876     20875     20877     20879     20878     20880
     20882     20881     20883     20885     20884     20886     20888     20887     20889
     20891     20890     20892     20894     20893     20895     20897     20896     20898
     20900     20899     20901     20903     20902     20904     20906     20905     20907
     20909     20908     20910     20912     20911     20913     20915     20914     20916
     20918     20917     20919     20921     20920     20922     20924     20923     20925
     20927     20926     20928     20930     20929     20931     20933     20932     20934
     20936     20935     20937     20939     20938     20940     20942     20941     20943
     20945     20944     20946     20948     20947     20949     20951     20950     20952
     20954     20953     20955     20957     20956     20958     20960     20959     20961
     20963     20962     20964     20966     20965     20967     20969     20968     20970
     20972     20971     20973     20975     20974     20976     20978     20977     20979
     20981     20980     20982     20984     20983     20985     20987     20986     20988
     20990     20989     20991     20993     20992     20994     20996     20995     20997
     20999     20998     21000     21002     21001     21003     21005     21004     21006
     21008     21007     21009     21011     21010     21012     21014     21013     21015
     21017     21016     21018     21020     21019     21021     21023     21022     21024
     21026     21025     21027     21029     21028     21030     21032     21031     21033
     21035     21034     21036     21038     21037     21039     21041     21040     21042
     21044     21043     21045     21047     21046     21048     21050     21049     21051
     21053     21052     21054     21056     21055     21057     21059     21058     21060
     21062     21061     21063     21065     21064     21066     21068     21067     21069
     21071     21070     21072     21074     21073     21075     21077     21076     21078
     21080     21079     21081     21083     21082     21084     21086     21085     21087
     21089     21088     21090     21092     21091     21093     21095     21094     21096
     21098     21097     21099     21101     21100     21102     21104     21103     21105
     21107     21106     21108     21110     21109     21111     21113     21112     21114
     21116     21115     21117     21119     21118     21120     21122     21121     21123
     21125     21124     21126     21128     21127     21129     21131     21130     21132
     21134     21133     21135     21137     21136     21138     21140     21139     21141
     21143     21142     21144     21146     21145     21147     21149     21148     21150
     21152     21151     21153     21155     21154     21156     21158     21157     21159
     21161     21160     21162     21164     21163     21165     21167     21166     21168
     21170     21169     21171     21173     21172     21174     21176     21175     21177
     21179     21178     21180     21182     21181     21183     21185     21184     21186
     21188     21187     21189     21191     21190     21192     21194     21193     21195
     21197     21196     21198     21200     21199     21201     21203     21202     21204
     21206     21205     21207     21209     21208     21210     21212     21211     21213
     21215     21214     21216     21218     21217     21219     21221     21220     21222
     21224     21223     21225     21227     21226     21228     21230     21229     21231
     21233     21232     21234     21236     21235     21237     21239     21238     21240
     21242     21241     21243     21245     21244     21246     21248     21247     21249
     21251     21250     21252     21254     21253     21255     21257     21256     21258
     21260     21259     21261     21263     21262     21264     21266     21265     21267
     21269     21268     21270     21272     21271     21273     21275     21274     21276
     21278     21277     21279     21281     21280     21282     21284     21283     21285
     21287     21286     21288     21290     21289     21291     21293     21292     21294
     21296     21295     21297     21299     21298     21300     21302     21301     21303
     21305     21304     21306     21308     21307     21309     21311     21310     21312
     21314     21313     21315     21317     21316     21318     21320     21319     21321
     21323     21322     21324     21326     21325     21327     21329     21328     21330
     21332     21331     21333     21335     21334     21336     21338     21337     21339
     21341     21340     21342     21344     21343     21345     21347     21346     21348
     21350     21349     21351     21353     21352     21354     21356     21355     21357
     21359     21358     21360     21362     21361     21363     21365     21364     21366
     21368     21367     21369     21371     21370     21372     21374     21373     21375
     21377     21376     21378     21380     21379     21381     21383     21382     21384
     21386     21385     21387     21389     21388     21390     21392     21391     21393
     21395     21394     21396     21398     21397     21399     21401     21400     21402
     21404     21403     21405     21407     21406     21408     21410     21409     21411
     21413     21412     21414     21416     21415     21417     21419     21418     21420
     21422     21421     21423     21425     21424     21426     21428     21427     21429
     21431     21430     21432     21434     21433     21435     21437     21436     21438
     21440     21439     21441     21443     21442     21444     21446     21445     21447
     21449     21448     21450     21452     21451     21453     21455     21454     21456
     21458     21457     21459     21461     21460     21462     21464     21463     21465
     21467     21466     21468     21470     21469     21471     21473     21472     21474
     21476     21475     21477     21479     21478     21480     21482     21481     21483
     21485     21484     21486     21488     21487     21489     21491     21490     21492
     21494     21493     21495     21497     21496     21498     21500     21499     21501
     21503     21502     21504     21506     21505     21507     21509     21508     21510
     21512     21511     21513     21515     21514     21516     21518     21517     21519
     21521     21520     21522     21524     21523     21525     21527     21526     21528
     21530     21529     21531     21533     21532     21534     21536     21535     21537
     21539     21538     21540     21542     21541     21543     21545     21544     21546
     21548     21547     21549     21551     21550     21552     21554     21553     21555
     21557     21556     21558     21560     21559     21561     21563     21562     21564
     21566     21565     21567     21569     21568     21570     21572     21571     21573
     21575     21574     21576     21578     21577     21579     21581     21580     21582
     21584     21583     21585     21587     21586     21588     21590     21589     21591
     21593     21592     21594     21596     21595     21597     21599     21598     21600
     21602     21601     21603     21605     21604     21606     21608     21607     21609
     21611     21610     21612     21614     21613     21615     21617     21616     21618
     21620     21619     21621     21623     21622     21624     21626     21625     21627
     21629     21628     21630     21632     21631     21633     21635     21634     21636
     21638     21637     21639     21641     21640     21642     21644     21643     21645
     21647     21646     21648     21650     21649     21651     21653     21652     21654
     21656     21655     21657     21659     21658     21660     21662     21661     21663
     21665     21664     21666     21668     21667     21669     21671     21670     21672
     21674     21673     21675     21677     21676     21678     21680     21679     21681
     21683     21682     21684     21686     21685     21687     21689     21688     21690
     21692     21691     21693     21695     21694     21696     21698     21697     21699
     21701     21700     21702     21704     21703     21705     21707     21706     21708
     21710     21709     21711     21713     21712     21714     21716     21715     21717
     21719     21718     21720     21722     21721     21723     21725     21724     21726
     21728     21727     21729     21731     21730     21732     21734     21733     21735
     21737     21736     21738     21740     21739     21741     21743     21742     21744
     21746     21745     21747     21749     21748     21750     21752     21751     21753
     21755     21754     21756     21758     21757     21759     21761     21760     21762
     21764     21763     21765     21767     21766     21768     21770     21769     21771
     21773     21772     21774     21776     21775     21777     21779     21778     21780
     21782     21781     21783     21785     21784     21786     21788     21787     21789
     21791     21790     21792     21794     21793     21795     21797     21796     21798
     21800     21799     21801     21803     21802     21804     21806     21805     21807
     21809     21808     21810     21812     21811     21813     21815     21814     21816
     21818     21817     21819     21821     21820     21822     21824     21823     21825
     21827     21826     21828     21830     21829     21831     21833     21832     21834
     21836     21835     21837     21839     21838     21840     21842     21841     21843
     21845     21844     21846     21848     21847     21849     21851     21850     21852
     21854     21853     21855     21857     21856     21858     21860     21859     21861
     21863     21862     21864     21866     21865     21867     21869     21868     21870
     21872     21871     21873     21875     21874     21876     21878     21877     21879
     21881     21880     21882     21884     21883     21885     21887     21886     21888
     21890     21889     21891     21893     21892     21894     21896     21895     21897
     21899     21898     21900     21902     21901     21903     21905     21904     21906
     21908     21907     21909     21911     21910     21912     21914     21913     21915
     21917     21916     21918     21920     21919     21921     21923     21922     21924
     21926     21925     21927     21929     21928     21930     21932     21931     21933
     21935     21934     21936     21938     21937     21939     21941     21940     21942
     21944     21943     21945     21947     21946     21948     21950     21949     21951
     21953     21952     21954     21956     21955     21957     21959     21958     21960
     21962     21961     21963     21965     21964     21966     21968     21967     21969
     21971     21970     21972     21974     21973     21975     21977     21976     21978
     21980     21979     21981     21983     21982     21984     21986     21985     21987
     21989     21988     21990     21992     21991     21993     21995     21994     21996
     21998     21997     21999     22001     22000     22002     22004     22003     22005
     22007     22006     22008     22010     22009     22011     22013     22012     22014
     22016     22015     22017     22019     22018     22020     22022     22021     22023
     22025     22024     22026     22028     22027     22029     22031     22030     22032
     22034     22033     22035     22037     22036     22038     22040     22039     22041
     22043     22042     22044     22046     22045     22047     22049     22048     22050
     22052     22051     22053     22055     22054     22056     22058     22057     22059
     22061     22060     22062     22064     22063     22065     22067     22066     22068
     22070     22069     22071     22073     22072     22074     22076     22075     22077
     22079     22078     22080     22082     22081     22083     22085     22084     22086
     22088     22087     22089     22091     22090     22092     22094     22093     22095
     22097     22096     22098     22100     22099     22101     22103     22102     22104
     22106     22105     22107     22109     22108     22110     22112     22111     22113
     22115     22114     22116     22118     22117     22119     22121     22120     22122
     22124     22123     22125     22127     22126     22128     22130     22129     22131
     22133     22132     22134     22136     22135     22137     22139     22138     22140
     22142     22141     22143     22145     22144     22146     22148     22147     22149
     22151     22150     22152     22154     22153     22155     22157     22156     22158
     22160     22159     22161     22163     22162     22164     22166     22165     22167
     22169     22168     22170     22172     22171     22173     22175     22174     22176
     22178     22177     22179     22181     22180     22182     22184     22183     22185
     22187     22186     22188     22190     22189     22191     22193     22192     22194
     22196     22195     22197     22199     22198     22200     22202     22201     22203
     22205     22204     22206     22208     22207     22209     22211     22210     22212
     22214     22213     22215     22217     22216     22218     22220     22219     22221
     22223     22222     22224     22226     22225     22227     22229     22228     22230
     22232     22231     22233     22235     22234     22236     22238     22237     22239
     22241     22240     22242     22244     22243     22245     22247     22246     22248
     22250     22249     22251     22253     22252     22254     22256     22255     22257
     22259     22258     22260     22262     22261     22263     22265     22264     22266
     22268     22267     22269     22271     22270     22272     22274     22273     22275
     22277     22276     22278     22280     22279     22281     22283     22282     22284
     22286     22285     22287     22289     22288     22290     22292     22291     22293
     22295     22294     22296     22298     22297     22299     22301     22300     22302
     22304     22303     22305     22307     22306     22308     22310     22309     22311
     22313     22312     22314     22316     22315     22317     22319     22318     22320
     22322     22321     22323     22325     22324     22326     22328     22327     22329
     22331     22330     22332     22334     22333     22335     22337     22336     22338
     22340     22339     22341     22343     22342     22344     22346     22345     22347
     22349     22348     22350     22352     22351     22353     22355     22354     22356
     22358     22357     22359     22361     22360     22362     22364     22363     22365
     22367     22366     22368     22370     22369     22371     22373     22372     22374
     22376     22375     22377     22379     22378     22380     22382     22381     22383
     22385     22384     22386     22388     22387     22389     22391     22390     22392
     22394     22393     22395     22397     22396     22398     22400     22399     22401
     22403     22402     22404     22406     22405     22407     22409     22408     22410
     22412     22411     22413     22415     22414     22416     22418     22417     22419
     22421     22420     22422     22424     22423     22425     22427     22426     22428
     22430     22429     22431     22433     22432     22434     22436     22435     22437
     22439     22438     22440     22442     22441     22443     22445     22444     22446
     22448     22447     22449     22451     22450     22452     22454     22453     22455
     22457     22456     22458     22460     22459     22461     22463     22462     22464
     22466     22465     22467     22469     22468     22470     22472     22471     22473
     22475     22474     22476     22478     22477     22479     22481     22480     22482
     22484     22483     22485     22487     22486     22488     22490     22489     22491
     22493     22492     22494     22496     22495     22497     22499     22498     22500
     22502     22501     22503     22505     22504     22506     22508     22507     22509
     22511     22510     22512     22514     22513     22515     22517     22516     22518
     22520     22519     22521     22523     22522     22524     22526     22525     22527
     22529     22528     22530     22532     22531     22533     22535     22534     22536
     22538     22537     22539     22541     22540     22542     22544     22543     22545
     22547     22546     22548     22550     22549     22551     22553     22552     22554
     22556     22555     22557     22559     22558     22560     22562     22561     22563
     22565     22564     22566     22568     22567     22569     22571     22570     22572
     22574     22573     22575     22577     22576     22578     22580     22579     22581
     22583     22582     22584     22586     22585     22587     22589     22588     22590
     22592     22591     22593     22595     22594     22596     22598     22597     22599
     22601     22600     22602     22604     22603     22605     22607     22606     22608
     22610     22609     22611     22613     22612     22614     22616     22615     22617
     22619     22618     22620     22622     22621     22623     22625     22624     22626
     22628     22627     22629     22631     22630     22632     22634     22633     22635
     22637     22636     22638     22640     22639     22641     22643     22642     22644
     22646     22645     22647     22649     22648     22650     22652     22651     22653
     22655     22654     22656     22658     22657     22659     22661     22660     22662
     22664     22663     22665     22667     22666     22668     22670     22669     22671
     22673     22672     22674     22676     22675     22677     22679     22678     22680
     22682     22681     22683     22685     22684     22686     22688     22687     22689
     22691     22690     22692     22694     22693     22695     22697     22696     22698
     22700     22699     22701     22703     22702     22704     22706     22705     22707
     22709     22708     22710     22712     22711     22713     22715     22714     22716
     22718     22717     22719     22721     22720     22722     22724     22723     22725
     22727     22726     22728     22730     22729     22731     22733     22732     22734
     22736     22735     22737     22739     22738     22740     22742     22741     22743
     22745     22744     22746     22748     22747     22749     22751     22750     22752
     22754     22753     22755     22757     22756     22758     22760     22759     22761
     22763     22762     22764     22766     22765     22767     22769     22768     22770
     22772     22771     22773     22775     22774     22776     22778     22777     22779
     22781     22780     22782     22784     22783     22785     22787     22786     22788
     22790     22789     22791     22793     22792     22794     22796     22795     22797
     22799     22798     22800     22802     22801     22803     22805     22804     22806
     22808     22807     22809     22811     22810     22812     22814     22813     22815
     22817     22816     22818     22820     22819     22821     22823     22822     22824
     22826     22825     22827     22829     22828     22830     22832     22831     22833
     22835     22834     22836     22838     22837     22839     22841     22840     22842
     22844     22843     22845     22847     22846     22848     22850     22849     22851
     22853     22852     22854     22856     22855     22857     22859     22858     22860
     22862     22861     22863     22865     22864     22866     22868     22867     22869
     22871     22870     22872     22874     22873     22875     22877     22876     22878
     22880     22879     22881     22883     22882     22884     22886     22885     22887
     22889     22888     22890     22892     22891     22893     22895     22894     22896
     22898     22897     22899     22901     22900     22902     22904     22903     22905
     22907     22906     22908     22910     22909     22911     22913     22912     22914
     22916     22915     22917     22919     22918     22920     22922     22921     22923
     22925     22924     22926     22928     22927     22929     22931     22930     22932
     22934     22933     22935     22937     22936     22938     22940     22939     22941
     22943     22942     22944     22946     22945     22947     22949     22948     22950
     22952     22951     22953     22955     22954     22956     22958     22957     22959
     22961     22960     22962     22964     22963     22965     22967     22966     22968
     22970     22969     22971     22973     22972     22974     22976     22975     22977
     22979     22978     22980     22982     22981     22983     22985     22984     22986
     22988     22987     22989     22991     22990     22992     22994     22993     22995
     22997     22996     22998     23000     22999     23001     23003     23002     23004
     23006     23005     23007     23009     23008     23010     23012     23011     23013
     23015     23014     23016     23018     23017     23019     23021     23020     23022
     23024     23023     23025     23027     23026     23028     23030     23029     23031
     23033     23032     23034     23036     23035     23037     23039     23038     23040
     23042     23041     23043     23045     23044     23046     23048     23047     23049
     23051     23050     23052     23054     23053     23055     23057     23056     23058
     23060     23059     23061     23063     23062     23064     23066     23065     23067
     23069     23068     23070     23072     23071     23073     23075     23074     23076
     23078     23077     23079     23081     23080     23082     23084     23083     23085
     23087     23086     23088     23090     23089     23091     23093     23092     23094
     23096     23095     23097     23099     23098     23100     23102     23101     23103
     23105     23104     23106     23108     23107     23109     23111     23110     23112
     23114     23113     23115     23117     23116     23118     23120     23119     23121
     23123     23122     23124     23126     23125     23127     23129     23128     23130
     23132     23131     23133     23135     23134     23136     23138     23137     23139
     23141     23140     23142     23144     23143     23145     23147     23146     23148
     23150     23149     23151     23153     23152     23154     23156     23155     23157
     23159     23158     23160     23162     23161     23163     23165     23164     23166
     23168     23167     23169     23171     23170     23172     23174     23173     23175
     23177     23176     23178     23180     23179     23181     23183     23182     23184
     23186     23185     23187     23189     23188     23190     23192     23191     23193
     23195     23194     23196     23198     23197     23199     23201     23200     23202
     23204     23203     23205     23207     23206     23208     23210     23209     23211
     23213     23212     23214     23216     23215     23217     23219     23218     23220
     23222     23221     23223     23225     23224     23226     23228     23227     23229
     23231     23230     23232     23234     23233     23235     23237     23236     23238
     23240     23239     23241     23243     23242     23244     23246     23245     23247
     23249     23248     23250     23252     23251     23253     23255     23254     23256
     23258     23257     23259     23261     23260     23262     23264     23263     23265
     23267     23266     23268     23270     23269     23271     23273     23272     23274
     23276     23275     23277     23279     23278     23280     23282     23281     23283
     23285     23284     23286     23288     23287     23289     23291     23290     23292
     23294     23293     23295     23297     23296     23298     23300     23299     23301
     23303     23302     23304     23306     23305     23307     23309     23308     23310
     23312     23311     23313     23315     23314     23316     23318     23317     23319
     23321     23320     23322     23324     23323     23325     23327     23326     23328
     23330     23329     23331     23333     23332     23334     23336     23335     23337
     23339     23338     23340     23342     23341     23343     23345     23344     23346
     23348     23347     23349     23351     23350     23352     23354     23353     23355
     23357     23356     23358     23360     23359     23361     23363     23362     23364
     23366     23365     23367     23369     23368     23370     23372     23371     23373
     23375     23374     23376     23378     23377     23379     23381     23380     23382
     23384     23383     23385     23387     23386     23388     23390     23389     23391
     23393     23392     23394     23396     23395     23397     23399     23398     23400
     23402     23401     23403     23405     23404     23406     23408     23407     23409
     23411     23410     23412     23414     23413     23415     23417     23416     23418
     23420     23419     23421     23423     23422     23424     23426     23425     23427
     23429     23428     23430     23432     23431     23433     23435     23434     23436
     23438     23437     23439     23441     23440     23442     23444     23443     23445
     23447     23446     23448     23450     23449     23451     23453     23452     23454
     23456     23455     23457     23459     23458     23460     23462     23461     23463
     23465     23464     23466     23468     23467     23469     23471     23470     23472
     23474     23473     23475     23477     23476     23478     23480     23479     23481
     23483     23482     23484     23486     23485     23487     23489     23488     23490
     23492     23491     23493     23495     23494     23496     23498     23497     23499
     23501     23500     23502     23504     23503     23505     23507     23506     23508
     23510     23509     23511     23513     23512     23514     23516     23515     23517
     23519     23518     23520     23522     23521     23523     23525     23524     23526
     23528     23527     23529     23531     23530     23532     23534     23533     23535
     23537     23536     23538     23540     23539     23541     23543     23542     23544
     23546     23545     23547     23549     23548     23550     23552     23551     23553
     23555     23554     23556     23558     23557     23559     23561     23560     23562
     23564     23563     23565     23567     23566     23568     23570     23569     23571
     23573     23572     23574     23576     23575     23577     23579     23578     23580
     23582     23581     23583     23585     23584     23586     23588     23587     23589
     23591     23590     23592     23594     23593     23595     23597     23596     23598
     23600     23599     23601     23603     23602     23604     23606     23605     23607
     23609     23608     23610     23612     23611     23613     23615     23614     23616
     23618     23617     23619     23621     23620     23622     23624     23623     23625
     23627     23626     23628     23630     23629     23631     23633     23632     23634
     23636     23635     23637     23639     23638     23640     23642     23641     23643
     23645     23644     23646     23648     23647     23649     23651     23650     23652
     23654     23653     23655     23657     23656     23658     23660     23659     23661
     23663     23662     23664     23666     23665     23667     23669     23668     23670
     23672     23671     23673     23675     23674     23676     23678     23677     23679
     23681     23680     23682     23684     23683     23685     23687     23686     23688
     23690     23689     23691     23693     23692     23694     23696     23695     23697
     23699     23698     23700     23702     23701     23703     23705     23704     23706
     23708     23707     23709     23711     23710     23712     23714     23713     23715
     23717     23716     23718     23720     23719     23721     23723     23722     23724
     23726     23725     23727     23729     23728     23730     23732     23731     23733
     23735     23734     23736     23738     23737     23739     23741     23740     23742
     23744     23743     23745     23747     23746     23748     23750     23749     23751
     23753     23752     23754     23756     23755     23757     23759     23758     23760
     23762     23761     23763     23765     23764     23766     23768     23767     23769
     23771     23770     23772     23774     23773     23775     23777     23776     23778
     23780     23779     23781     23783     23782     23784     23786     23785     23787
     23789     23788     23790     23792     23791     23793     23795     23794     23796
     23798     23797     23799     23801     23800     23802     23804     23803     23805
     23807     23806     23808     23810     23809     23811     23813     23812     23814
     23816     23815     23817     23819     23818     23820     23822     23821     23823
     23825     23824     23826     23828     23827     23829     23831     23830     23832
     23834     23833     23835     23837     23836     23838     23840     23839     23841
     23843     23842     23844     23846     23845     23847     23849     23848     23850
     23852     23851     23853     23855     23854     23856     23858     23857     23859
     23861     23860     23862     23864     23863     23865     23867     23866     23868
     23870     23869     23871     23873     23872     23874     23876     23875     23877
     23879     23878     23880     23882     23881     23883     23885     23884     23886
     23888     23887     23889     23891     23890     23892     23894     23893     23895
     23897     23896     23898     23900     23899     23901     23903     23902     23904
     23906     23905     23907     23909     23908     23910     23912     23911     23913
     23915     23914     23916     23918     23917     23919     23921     23920     23922
     23924     23923     23925     23927     23926     23928     23930     23929     23931
     23933     23932     23934     23936     23935     23937     23939     23938     23940
     23942     23941     23943     23945     23944     23946     23948     23947     23949
     23951     23950     23952     23954     23953     23955     23957     23956     23958
     23960     23959     23961     23963     23962     23964     23966     23965     23967
     23969     23968     23970     23972     23971     23973     23975     23974     23976
     23978     23977     23979     23981     23980     23982     23984     23983     23985
     23987     23986     23988     23990     23989     23991     23993     23992     23994
     23996     23995     23997     23999     23998     24000     24002     24001     24003
     24005     24004     24006     24008     24007     24009     24011     24010     24012
     24014     24013     24015     24017     24016     24018     24020     24019     24021
     24023     24022     24024     24026     24025     24027     24029     24028     24030
     24032     24031     24033     24035     24034     24036     24038     24037     24039
     24041     24040     24042     24044     24043     24045     24047     24046     24048
     24050     24049     24051     24053     24052     24054     24056     24055     24057
     24059     24058     24060     24062     24061     24063     24065     24064     24066
     24068     24067     24069     24071     24070     24072     24074     24073     24075
     24077     24076     24078     24080     24079     24081     24083     24082     24084
     24086     24085     24087     24089     24088     24090     24092     24091     24093
     24095     24094     24096     24098     24097     24099     24101     24100     24102
     24104     24103     24105     24107     24106     24108     24110     24109     24111
     24113     24112     24114     24116     24115     24117     24119     24118     24120
     24122     24121     24123     24125     24124     24126     24128     24127     24129
     24131     24130     24132     24134     24133     24135     24137     24136     24138
     24140     24139     24141     24143     24142     24144     24146     24145     24147
     24149     24148     24150     24152     24151     24153     24155     24154     24156
     24158     24157     24159     24161     24160     24162     24164     24163     24165
     24167     24166     24168     24170     24169     24171     24173     24172     24174
     24176     24175     24177     24179     24178     24180     24182     24181     24183
     24185     24184     24186     24188     24187     24189     24191     24190     24192
     24194     24193     24195     24197     24196     24198     24200     24199     24201
     24203     24202     24204     24206     24205     24207     24209     24208     24210
     24212     24211     24213     24215     24214     24216     24218     24217     24219
     24221     24220     24222     24224     24223     24225     24227     24226     24228
     24230     24229     24231     24233     24232     24234     24236     24235     24237
     24239     24238     24240     24242     24241     24243     24245     24244     24246
     24248     24247     24249     24251     24250     24252     24254     24253     24255
     24257     24256     24258     24260     24259     24261     24263     24262     24264
     24266     24265     24267     24269     24268     24270     24272     24271     24273
     24275     24274     24276     24278     24277     24279     24281     24280     24282
     24284     24283     24285     24287     24286     24288     24290     24289     24291
     24293     24292     24294     24296     24295     24297     24299     24298     24300
     24302     24301     24303     24305     24304     24306     24308     24307     24309
     24311     24310     24312     24314     24313     24315     24317     24316     24318
     24320     24319     24321     24323     24322     24324     24326     24325     24327
     24329     24328     24330     24332     24331     24333     24335     24334     24336
     24338     24337     24339     24341     24340     24342     24344     24343     24345
     24347     24346     24348     24350     24349     24351     24353     24352     24354
     24356     24355     24357     24359     24358     24360     24362     24361     24363
     24365     24364     24366     24368     24367     24369     24371     24370     24372
     24374     24373     24375     24377     24376     24378     24380     24379     24381
     24383     24382     24384     24386     24385     24387     24389     24388     24390
     24392     24391     24393     24395     24394     24396     24398     24397     24399
     24401     24400     24402     24404     24403     24405     24407     24406     24408
     24410     24409     24411     24413     24412     24414     24416     24415     24417
     24419     24418     24420     24422     24421     24423     24425     24424     24426
     24428     24427     24429     24431     24430     24432     24434     24433     24435
     24437     24436     24438     24440     24439     24441     24443     24442     24444
     24446     24445     24447     24449     24448     24450     24452     24451     24453
     24455     24454     24456     24458     24457     24459     24461     24460     24462
     24464     24463     24465     24467     24466     24468     24470     24469     24471
     24473     24472     24474     24476     24475     24477     24479     24478     24480
     24482     24481     24483     24485     24484     24486     24488     24487     24489
     24491     24490     24492     24494     24493     24495     24497     24496     24498
     24500     24499     24501     24503     24502     24504     24506     24505     24507
     24509     24508     24510     24512     24511     24513     24515     24514     24516
     24518     24517     24519     24521     24520     24522     24524     24523     24525
     24527     24526     24528     24530     24529     24531     24533     24532     24534
     24536     24535     24537     24539     24538     24540     24542     24541     24543
     24545     24544     24546     24548     24547     24549     24551     24550     24552
     24554     24553     24555     24557     24556     24558     24560     24559     24561
     24563     24562     24564     24566     24565     24567     24569     24568     24570
     24572     24571     24573     24575     24574     24576     24578     24577     24579
     24581     24580     24582     24584     24583     24585     24587     24586     24588
     24590     24589     24591     24593     24592     24594     24596     24595     24597
     24599     24598     24600     24602     24601     24603     24605     24604     24606
     24608     24607     24609     24611     24610     24612     24614     24613     24615
     24617     24616     24618     24620     24619     24621     24623     24622     24624
     24626     24625     24627     24629     24628     24630     24632     24631     24633
     24635     24634     24636     24638     24637     24639     24641     24640     24642
     24644     24643     24645     24647     24646     24648     24650     24649     24651
     24653     24652     24654     24656     24655     24657     24659     24658     24660
     24662     24661     24663     24665     24664     24666     24668     24667     24669
     24671     24670     24672     24674     24673     24675     24677     24676     24678
     24680     24679     24681     24683     24682     24684     24686     24685     24687
     24689     24688     24690     24692     24691     24693     24695     24694     24696
     24698     24697     24699     24701     24700     24702     24704     24703     24705
     24707     24706     24708     24710     24709     24711     24713     24712     24714
     24716     24715     24717     24719     24718     24720     24722     24721     24723
     24725     24724     24726     24728     24727     24729     24731     24730     24732
     24734     24733     24735     24737     24736     24738     24740     24739     24741
     24743     24742     24744     24746     24745     24747     24749     24748     24750
     24752     24751     24753     24755     24754     24756     24758     24757     24759
     24761     24760     24762     24764     24763     24765     24767     24766     24768
     24770     24769     24771     24773     24772     24774     24776     24775     24777
     24779     24778     24780     24782     24781     24783     24785     24784     24786
     24788     24787     24789     24791     24790     24792     24794     24793     24795
     24797     24796     24798     24800     24799     24801     24803     24802     24804
     24806     24805     24807     24809     24808     24810     24812     24811     24813
     24815     24814     24816     24818     24817     24819     24821     24820     24822
     24824     24823     24825     24827     24826     24828     24830     24829     24831
     24833     24832     24834     24836     24835     24837     24839     24838     24840
     24842     24841     24843     24845     24844     24846     24848     24847     24849
     24851     24850     24852     24854     24853     24855     24857     24856     24858
     24860     24859     24861     24863     24862     24864     24866     24865     24867
     24869     24868     24870     24872     24871     24873     24875     24874     24876
     24878     24877     24879     24881     24880     24882     24884     24883     24885
     24887     24886     24888     24890     24889     24891     24893     24892     24894
     24896     24895     24897     24899     24898     24900     24902     24901     24903
     24905     24904     24906     24908     24907     24909     24911     24910     24912
     24914     24913     24915     24917     24916     24918     24920     24919     24921
     24923     24922     24924     24926     24925     24927     24929     24928     24930
     24932     24931     24933     24935     24934     24936     24938     24937     24939
     24941     24940     24942     24944     24943     24945     24947     24946     24948
     24950     24949     24951     24953     24952     24954     24956     24955     24957
     24959     24958     24960     24962     24961     24963     24965     24964     24966
     24968     24967     24969     24971     24970     24972     24974     24973     24975
     24977     24976     24978     24980     24979     24981     24983     24982     24984
     24986     24985     24987     24989     24988     24990     24992     24991     24993
     24995     24994     24996     24998     24997     24999     25001     25000     25002
     25004     25003     25005     25007     25006     25008     25010     25009     25011
     25013     25012     25014     25016     25015     25017     25019     25018     25020
     25022     25021     25023     25025     25024     25026     25028     25027     25029
     25031     25030     25032     25034     25033     25035     25037     25036     25038
     25040     25039     25041     25043     25042     25044     25046     25045     25047
     25049     25048     25050     25052     25051     25053     25055     25054     25056
     25058     25057     25059     25061     25060     25062     25064     25063     25065
     25067     25066     25068     25070     25069     25071     25073     25072     25074
     25076     25075     25077     25079     25078     25080     25082     25081     25083
     25085     25084     25086     25088     25087     25089     25091     25090     25092
     25094     25093     25095     25097     25096     25098     25100     25099     25101
     25103     25102     25104     25106     25105     25107     25109     25108     25110
     25112     25111     25113     25115     25114     25116     25118     25117     25119
     25121     25120     25122     25124     25123     25125     25127     25126     25128
     25130     25129     25131     25133     25132     25134     25136     25135     25137
     25139     25138     25140     25142     25141     25143     25145     25144     25146
     25148     25147     25149     25151     25150     25152     25154     25153     25155
     25157     25156     25158     25160     25159     25161     25163     25162     25164
     25166     25165     25167     25169     25168     25170     25172     25171     25173
     25175     25174     25176     25178     25177     25179     25181     25180     25182
     25184     25183     25185     25187     25186     25188     25190     25189     25191
     25193     25192     25194     25196     25195     25197     25199     25198     25200
     25202     25201     25203     25205     25204     25206     25208     25207     25209
     25211     25210     25212     25214     25213     25215     25217     25216     25218
     25220     25219     25221     25223     25222     25224     25226     25225     25227
     25229     25228     25230     25232     25231     25233     25235     25234     25236
     25238     25237     25239     25241     25240     25242     25244     25243     25245
     25247     25246     25248     25250     25249     25251     25253     25252     25254
     25256     25255     25257     25259     25258     25260     25262     25261     25263
     25265     25264     25266     25268     25267     25269     25271     25270     25272
     25274     25273     25275     25277     25276     25278     25280     25279     25281
     25283     25282     25284     25286     25285     25287     25289     25288     25290
     25292     25291     25293     25295     25294     25296     25298     25297     25299
     25301     25300     25302     25304     25303     25305     25307     25306     25308
     25310     25309     25311     25313     25312     25314     25316     25315     25317
     25319     25318     25320     25322     25321     25323     25325     25324     25326
     25328     25327     25329     25331     25330     25332     25334     25333     25335
     25337     25336     25338     25340     25339     25341     25343     25342     25344
     25346     25345     25347     25349     25348     25350     25352     25351     25353
     25355     25354     25356     25358     25357     25359     25361     25360     25362
     25364     25363     25365     25367     25366     25368     25370     25369     25371
     25373     25372     25374     25376     25375     25377     25379     25378     25380
     25382     25381     25383     25385     25384     25386     25388     25387     25389
     25391     25390     25392     25394     25393     25395     25397     25396     25398
     25400     25399     25401     25403     25402     25404     25406     25405     25407
     25409     25408     25410     25412     25411     25413     25415     25414     25416
     25418     25417     25419     25421     25420     25422     25424     25423     25425
     25427     25426     25428     25430     25429     25431     25433     25432     25434
     25436     25435     25437     25439     25438     25440     25442     25441     25443
     25445     25444     25446     25448     25447     25449     25451     25450     25452
     25454     25453     25455     25457     25456     25458     25460     25459     25461
     25463     25462     25464     25466     25465     25467     25469     25468     25470
     25472     25471     25473     25475     25474     25476     25478     25477     25479
     25481     25480     25482     25484     25483     25485     25487     25486     25488
     25490     25489     25491     25493     25492     25494     25496     25495     25497
     25499     25498     25500     25502     25501     25503     25505     25504     25506
     25508     25507     25509     25511     25510     25512     25514     25513     25515
     25517     25516     25518     25520     25519     25521     25523     25522     25524
     25526     25525     25527     25529     25528     25530     25532     25531     25533
     25535     25534     25536     25538     25537     25539     25541     25540     25542
     25544     25543     25545     25547     25546     25548     25550     25549     25551
     25553     25552     25554     25556     25555     25557     25559     25558     25560
     25562     25561     25563     25565     25564     25566     25568     25567     25569
     25571     25570     25572     25574     25573     25575     25577     25576     25578
     25580     25579     25581     25583     25582     25584     25586     25585     25587
     25589     25588     25590     25592     25591     25593     25595     25594     25596
     25598     25597     25599     25601     25600     25602     25604     25603     25605
     25607     25606     25608     25610     25609     25611     25613     25612     25614
     25616     25615     25617     25619     25618     25620     25622     25621     25623
     25625     25624     25626     25628     25627     25629     25631     25630     25632
     25634     25633     25635     25637     25636     25638     25640     25639     25641
     25643     25642     25644     25646     25645     25647     25649     25648     25650
     25652     25651     25653     25655     25654     25656     25658     25657     25659
     25661     25660     25662     25664     25663     25665     25667     25666     25668
     25670     25669     25671     25673     25672     25674     25676     25675     25677
     25679     25678     25680     25682     25681     25683     25685     25684     25686
     25688     25687     25689     25691     25690     25692     25694     25693     25695
     25697     25696     25698     25700     25699     25701     25703     25702     25704
     25706     25705     25707     25709     25708     25710     25712     25711     25713
     25715     25714     25716     25718     25717     25719     25721     25720     25722
     25724     25723     25725     25727     25726     25728     25730     25729     25731
     25733     25732     25734     25736     25735     25737     25739     25738     25740
     25742     25741     25743     25745     25744     25746     25748     25747     25749
     25751     25750     25752     25754     25753     25755     25757     25756     25758
     25760     25759     25761     25763     25762     25764     25766     25765     25767
     25769     25768     25770     25772     25771     25773     25775     25774     25776
     25778     25777     25779     25781     25780     25782     25784     25783     25785
     25787     25786     25788     25790     25789     25791     25793     25792     25794
     25796     25795     25797     25799     25798     25800     25802     25801     25803
     25805     25804     25806     25808     25807     25809     25811     25810     25812
     25814     25813     25815     25817     25816     25818     25820     25819     25821
     25823     25822     25824     25826     25825     25827     25829     25828     25830
     25832     25831     25833     25835     25834     25836     25838     25837     25839
     25841     25840     25842     25844     25843     25845     25847     25846     25848
     25850     25849     25851     25853     25852     25854     25856     25855     25857
     25859     25858     25860     25862     25861     25863     25865     25864     25866
     25868     25867     25869     25871     25870     25872     25874     25873     25875
     25877     25876     25878     25880     25879     25881     25883     25882     25884
     25886     25885     25887     25889     25888     25890     25892     25891     25893
     25895     25894     25896     25898     25897     25899     25901     25900     25902
     25904     25903     25905     25907     25906     25908     25910     25909     25911
     25913     25912     25914     25916     25915     25917     25919     25918     25920
     25922     25921     25923     25925     25924     25926     25928     25927     25929
     25931     25930     25932     25934     25933     25935     25937     25936     25938
     25940     25939     25941     25943     25942     25944     25946     25945     25947
     25949     25948     25950     25952     25951     25953     25955     25954     25956
     25958     25957     25959     25961     25960     25962     25964     25963     25965
     25967     25966     25968     25970     25969     25971     25973     25972     25974
     25976     25975     25977     25979     25978     25980     25982     25981     25983
     25985     25984     25986     25988     25987     25989     25991     25990     25992
     25994     25993     25995     25997     25996     25998     26000     25999     26001
     26003     26002     26004     26006     26005     26007     26009     26008     26010
     26012     26011     26013     26015     26014     26016     26018     26017     26019
     26021     26020     26022     26024     26023     26025     26027     26026     26028
     26030     26029     26031     26033     26032     26034     26036     26035     26037
     26039     26038     26040     26042     26041     26043     26045     26044     26046
     26048     26047     26049     26051     26050     26052     26054     26053     26055
     26057     26056     26058     26060     26059     26061     26063     26062     26064
     26066     26065     26067     26069     26068     26070     26072     26071     26073
     26075     26074     26076     26078     26077     26079     26081     26080     26082
     26084     26083     26085     26087     26086     26088     26090     26089     26091
     26093     26092     26094     26096     26095     26097     26099     26098     26100
     26102     26101     26103     26105     26104     26106     26108     26107     26109
     26111     26110     26112     26114     26113     26115     26117     26116     26118
     26120     26119     26121     26123     26122     26124     26126     26125     26127
     26129     26128     26130     26132     26131     26133     26135     26134     26136
     26138     26137     26139     26141     26140     26142     26144     26143     26145
     26147     26146     26148     26150     26149     26151     26153     26152     26154
     26156     26155     26157     26159     26158     26160     26162     26161     26163
     26165     26164     26166     26168     26167     26169     26171     26170     26172
     26174     26173     26175     26177     26176     26178     26180     26179     26181
     26183     26182     26184     26186     26185     26187     26189     26188     26190
     26192     26191     26193     26195     26194     26196     26198     26197     26199
     26201     26200     26202     26204     26203     26205     26207     26206     26208
     26210     26209     26211     26213     26212     26214     26216     26215     26217
     26219     26218     26220     26222     26221     26223     26225     26224     26226
     26228     26227     26229     26231     26230     26232     26234     26233     26235
     26237     26236     26238     26240     26239     26241     26243     26242     26244
     26246     26245     26247     26249     26248     26250     26252     26251     26253
     26255     26254     26256     26258     26257     26259     26261     26260     26262
     26264     26263     26265     26267     26266     26268     26270     26269     26271
     26273     26272     26274     26276     26275     26277     26279     26278     26280
     26282     26281     26283     26285     26284     26286     26288     26287     26289
     26291     26290     26292     26294     26293     26295     26297     26296     26298
     26300     26299     26301     26303     26302     26304     26306     26305     26307
     26309     26308     26310     26312     26311     26313     26315     26314     26316
     26318     26317     26319     26321     26320     26322     26324     26323     26325
     26327     26326     26328     26330     26329     26331     26333     26332     26334
     26336     26335     26337     26339     26338     26340     26342     26341     26343
     26345     26344     26346     26348     26347     26349     26351     26350     26352
     26354     26353     26355     26357     26356     26358     26360     26359     26361
     26363     26362     26364     26366     26365     26367     26369     26368     26370
     26372     26371     26373     26375     26374     26376     26378     26377     26379
     26381     26380     26382     26384     26383     26385     26387     26386     26388
     26390     26389     26391     26393     26392     26394     26396     26395     26397
     26399     26398     26400     26402     26401     26403     26405     26404     26406
     26408     26407     26409     26411     26410     26412     26414     26413     26415
     26417     26416     26418     26420     26419     26421     26423     26422     26424
     26426     26425     26427     26429     26428     26430     26432     26431     26433
     26435     26434     26436     26438     26437     26439     26441     26440     26442
     26444     26443     26445     26447     26446     26448     26450     26449     26451
     26453     26452     26454     26456     26455     26457     26459     26458     26460
     26462     26461     26463     26465     26464     26466     26468     26467     26469
     26471     26470     26472     26474     26473     26475     26477     26476     26478
     26480     26479     26481     26483     26482     26484     26486     26485     26487
     26489     26488     26490     26492     26491     26493     26495     26494     26496
     26498     26497     26499     26501     26500     26502     26504     26503     26505
     26507     26506     26508     26510     26509     26511     26513     26512     26514
     26516     26515     26517     26519     26518     26520     26522     26521     26523
     26525     26524     26526     26528     26527     26529     26531     26530     26532
     26534     26533     26535     26537     26536     26538     26540     26539     26541
     26543     26542     26544     26546     26545     26547     26549     26548     26550
     26552     26551     26553     26555     26554     26556     26558     26557     26559
     26561     26560     26562     26564     26563     26565     26567     26566     26568
     26570     26569     26571     26573     26572     26574     26576     26575     26577
     26579     26578     26580     26582     26581     26583     26585     26584     26586
     26588     26587     26589     26591     26590     26592     26594     26593     26595
     26597     26596     26598     26600     26599     26601     26603     26602     26604
     26606     26605     26607     26609     26608     26610     26612     26611     26613
     26615     26614     26616     26618     26617     26619     26621     26620     26622
     26624     26623     26625     26627     26626     26628     26630     26629     26631
     26633     26632     26634     26636     26635     26637     26639     26638     26640
     26642     26641     26643     26645     26644     26646     26648     26647     26649
     26651     26650     26652     26654     26653     26655     26657     26656     26658
     26660     26659     26661     26663     26662     26664     26666     26665     26667
     26669     26668     26670     26672     26671     26673     26675     26674     26676
     26678     26677     26679     26681     26680     26682     26684     26683     26685
     26687     26686     26688     26690     26689     26691     26693     26692     26694
     26696     26695     26697     26699     26698     26700     26702     26701     26703
     26705     26704     26706     26708     26707     26709     26711     26710     26712
     26714     26713     26715     26717     26716     26718     26720     26719     26721
     26723     26722     26724     26726     26725     26727     26729     26728     26730
     26732     26731     26733     26735     26734     26736     26738     26737     26739
     26741     26740     26742     26744     26743     26745     26747     26746     26748
     26750     26749     26751     26753     26752     26754     26756     26755     26757
     26759     26758     26760     26762     26761     26763     26765     26764     26766
     26768     26767     26769     26771     26770     26772     26774     26773     26775
     26777     26776     26778     26780     26779     26781     26783     26782     26784
     26786     26785     26787     26789     26788     26790     26792     26791     26793
     26795     26794     26796     26798     26797     26799     26801     26800     26802
     26804     26803     26805     26807     26806     26808     26810     26809     26811
     26813     26812     26814     26816     26815     26817     26819     26818     26820
     26822     26821     26823     26825     26824     26826     26828     26827     26829
     26831     26830     26832     26834     26833     26835     26837     26836     26838
     26840     26839     26841     26843     26842     26844     26846     26845     26847
     26849     26848     26850     26852     26851     26853     26855     26854     26856
     26858     26857     26859     26861     26860     26862     26864     26863     26865
     26867     26866     26868     26870     26869     26871     26873     26872     26874
     26876     26875     26877     26879     26878     26880     26882     26881     26883
     26885     26884     26886     26888     26887     26889     26891     26890     26892
     26894     26893     26895     26897     26896     26898     26900     26899     26901
     26903     26902     26904     26906     26905     26907     26909     26908     26910
     26912     26911     26913     26915     26914     26916     26918     26917     26919
     26921     26920     26922     26924     26923     26925     26927     26926     26928
     26930     26929     26931     26933     26932     26934     26936     26935     26937
     26939     26938     26940     26942     26941     26943     26945     26944     26946
     26948     26947     26949     26951     26950     26952     26954     26953     26955
     26957     26956     26958     26960     26959     26961     26963     26962     26964
     26966     26965     26967     26969     26968     26970     26972     26971     26973
     26975     26974     26976     26978     26977     26979     26981     26980     26982
     26984     26983     26985     26987     26986     26988     26990     26989     26991
     26993     26992     26994     26996     26995     26997     26999     26998     27000
     27002     27001     27003     27005     27004     27006     27008     27007     27009
     27011     27010     27012     27014     27013     27015     27017     27016     27018
     27020     27019     27021     27023     27022     27024     27026     27025     27027
     27029     27028     27030     27032     27031     27033     27035     27034     27036
     27038     27037     27039     27041     27040     27042     27044     27043     27045
     27047     27046     27048     27050     27049     27051     27053     27052     27054
     27056     27055     27057     27059     27058     27060     27062     27061     27063
     27065     27064     27066     27068     27067     27069     27071     27070     27072
     27074     27073     27075     27077     27076     27078     27080     27079     27081
     27083     27082     27084     27086     27085     27087     27089     27088     27090
     27092     27091     27093     27095     27094     27096     27098     27097     27099
     27101     27100     27102     27104     27103     27105     27107     27106     27108
     27110     27109     27111     27113     27112     27114     27116     27115     27117
     27119     27118     27120     27122     27121     27123     27125     27124     27126
     27128     27127     27129     27131     27130     27132     27134     27133     27135
     27137     27136     27138     27140     27139     27141     27143     27142     27144
     27146     27145     27147     27149     27148     27150     27152     27151     27153
     27155     27154     27156     27158     27157     27159     27161     27160     27162
     27164     27163     27165     27167     27166     27168     27170     27169     27171
     27173     27172     27174     27176     27175     27177     27179     27178     27180
     27182     27181     27183     27185     27184     27186     27188     27187     27189
     27191     27190     27192     27194     27193     27195     27197     27196     27198
     27200     27199     27201     27203     27202     27204     27206     27205     27207
     27209     27208     27210     27212     27211     27213     27215     27214     27216
     27218     27217     27219     27221     27220     27222     27224     27223     27225
     27227     27226     27228     27230     27229     27231     27233     27232     27234
     27236     27235     27237     27239     27238     27240     27242     27241     27243
     27245     27244     27246     27248     27247     27249     27251     27250     27252
     27254     27253     27255     27257     27256     27258     27260     27259     27261
     27263     27262     27264     27266     27265     27267     27269     27268     27270
     27272     27271     27273     27275     27274     27276     27278     27277     27279
     27281     27280     27282     27284     27283     27285     27287     27286     27288
     27290     27289     27291     27293     27292     27294     27296     27295     27297
     27299     27298     27300     27302     27301     27303     27305     27304     27306
     27308     27307     27309     27311     27310     27312     27314     27313     27315
     27317     27316     27318     27320     27319     27321     27323     27322     27324
     27326     27325     27327     27329     27328     27330     27332     27331     27333
     27335     27334     27336     27338     27337     27339     27341     27340     27342
     27344     27343     27345     27347     27346     27348     27350     27349     27351
     27353     27352     27354     27356     27355     27357     27359     27358     27360
     27362     27361     27363     27365     27364     27366     27368     27367     27369
     27371     27370     27372     27374     27373     27375     27377     27376     27378
     27380     27379     27381     27383     27382     27384     27386     27385     27387
     27389     27388     27390     27392     27391     27393     27395     27394     27396
     27398     27397     27399     27401     27400     27402     27404     27403     27405
     27407     27406     27408     27410     27409     27411     27413     27412     27414
     27416     27415     27417     27419     27418     27420     27422     27421     27423
     27425     27424     27426     27428     27427     27429     27431     27430     27432
     27434     27433     27435     27437     27436     27438     27440     27439     27441
     27443     27442     27444     27446     27445     27447     27449     27448     27450
     27452     27451     27453     27455     27454     27456     27458     27457     27459
     27461     27460     27462     27464     27463     27465     27467     27466     27468
     27470     27469     27471     27473     27472     27474     27476     27475     27477
     27479     27478     27480     27482     27481     27483     27485     27484     27486
     27488     27487     27489     27491     27490     27492     27494     27493     27495
     27497     27496     27498     27500     27499     27501     27503     27502     27504
     27506     27505     27507     27509     27508     27510     27512     27511     27513
     27515     27514     27516     27518     27517     27519     27521     27520     27522
     27524     27523     27525     27527     27526     27528     27530     27529     27531
     27533     27532     27534     27536     27535     27537     27539     27538     27540
     27542     27541     27543     27545     27544     27546     27548     27547     27549
     27551     27550     27552     27554     27553     27555     27557     27556     27558
     27560     27559     27561     27563     27562     27564     27566     27565     27567
     27569     27568     27570     27572     27571     27573     27575     27574     27576
     27578     27577     27579     27581     27580     27582     27584     27583     27585
     27587     27586     27588     27590     27589     27591     27593     27592     27594
     27596     27595     27597     27599     27598     27600     27602     27601     27603
     27605     27604     27606     27608     27607     27609     27611     27610     27612
     27614     27613     27615     27617     27616     27618     27620     27619     27621
     27623     27622     27624     27626     27625     27627     27629     27628     27630
     27632     27631     27633     27635     27634     27636     27638     27637     27639
     27641     27640     27642     27644     27643     27645     27647     27646     27648
     27650     27649     27651     27653     27652     27654     27656     27655     27657
     27659     27658     27660     27662     27661     27663     27665     27664     27666
     27668     27667     27669     27671     27670     27672     27674     27673     27675
     27677     27676     27678     27680     27679     27681     27683     27682     27684
     27686     27685     27687     27689     27688     27690     27692     27691     27693
     27695     27694     27696     27698     27697     27699     27701     27700     27702
     27704     27703     27705     27707     27706     27708     27710     27709     27711
     27713     27712     27714     27716     27715     27717     27719     27718     27720
     27722     27721     27723     27725     27724     27726     27728     27727     27729
     27731     27730     27732     27734     27733     27735     27737     27736     27738
     27740     27739     27741     27743     27742     27744     27746     27745     27747
     27749     27748     27750     27752     27751     27753     27755     27754     27756
     27758     27757     27759     27761     27760     27762     27764     27763     27765
     27767     27766     27768     27770     27769     27771     27773     27772     27774
     27776     27775     27777     27779     27778     27780     27782     27781     27783
     27785     27784     27786     27788     27787     27789     27791     27790     27792
     27794     27793     27795     27797     27796     27798     27800     27799     27801
     27803     27802     27804     27806     27805     27807     27809     27808     27810
     27812     27811     27813     27815     27814     27816     27818     27817     27819
     27821     27820     27822     27824     27823     27825     27827     27826     27828
     27830     27829     27831     27833     27832     27834     27836     27835     27837
     27839     27838     27840     27842     27841     27843     27845     27844     27846
     27848     27847     27849     27851     27850     27852     27854     27853     27855
     27857     27856     27858     27860     27859     27861     27863     27862     27864
     27866     27865     27867     27869     27868     27870     27872     27871     27873
     27875     27874     27876     27878     27877     27879     27881     27880     27882
     27884     27883     27885     27887     27886     27888     27890     27889     27891
     27893     27892     27894     27896     27895     27897     27899     27898     27900
     27902     27901     27903     27905     27904     27906     27908     27907     27909
     27911     27910     27912     27914     27913     27915     27917     27916     27918
     27920     27919     27921     27923     27922     27924     27926     27925     27927
     27929     27928     27930     27932     27931     27933     27935     27934     27936
     27938     27937     27939     27941     27940     27942     27944     27943     27945
     27947     27946     27948     27950     27949     27951     27953     27952     27954
     27956     27955     27957     27959     27958     27960     27962     27961     27963
     27965     27964     27966     27968     27967     27969     27971     27970     27972
     27974     27973     27975     27977     27976     27978     27980     27979     27981
     27983     27982     27984     27986     27985     27987     27989     27988     27990
     27992     27991     27993     27995     27994     27996     27998     27997     27999
     28001     28000     28002     28004     28003     28005     28007     28006     28008
     28010     28009     28011     28013     28012     28014     28016     28015     28017
     28019     28018     28020     28022     28021     28023     28025     28024     28026
     28028     28027     28029     28031     28030     28032     28034     28033     28035
     28037     28036     28038     28040     28039     28041     28043     28042     28044
     28046     28045     28047     28049     28048     28050     28052     28051     28053
     28055     28054     28056     28058     28057     28059     28061     28060     28062
     28064     28063     28065     28067     28066     28068     28070     28069     28071
     28073     28072     28074     28076     28075     28077     28079     28078     28080
     28082     28081     28083     28085     28084     28086     28088     28087     28089
     28091     28090     28092     28094     28093     28095     28097     28096     28098
     28100     28099     28101     28103     28102     28104     28106     28105     28107
     28109     28108     28110     28112     28111     28113     28115     28114     28116
     28118     28117     28119     28121     28120     28122     28124     28123     28125
     28127     28126     28128     28130     28129     28131     28133     28132     28134
     28136     28135     28137     28139     28138     28140     28142     28141     28143
     28145     28144     28146     28148     28147     28149     28151     28150     28152
     28154     28153     28155     28157     28156     28158     28160     28159     28161
     28163     28162     28164     28166     28165     28167     28169     28168     28170
     28172     28171     28173     28175     28174     28176     28178     28177     28179
     28181     28180     28182     28184     28183     28185     28187     28186     28188
     28190     28189     28191     28193     28192     28194     28196     28195     28197
     28199     28198     28200     28202     28201     28203     28205     28204     28206
     28208     28207     28209     28211     28210     28212     28214     28213     28215
     28217     28216     28218     28220     28219     28221     28223     28222     28224
     28226     28225     28227     28229     28228     28230     28232     28231     28233
     28235     28234     28236     28238     28237     28239     28241     28240     28242
     28244     28243     28245     28247     28246     28248     28250     28249     28251
     28253     28252     28254     28256     28255     28257     28259     28258     28260
     28262     28261     28263     28265     28264     28266     28268     28267     28269
     28271     28270     28272     28274     28273     28275     28277     28276     28278
     28280     28279     28281     28283     28282     28284     28286     28285     28287
     28289     28288     28290     28292     28291     28293     28295     28294     28296
     28298     28297     28299     28301     28300     28302     28304     28303     28305
     28307     28306     28308     28310     28309     28311     28313     28312     28314
     28316     28315     28317     28319     28318     28320     28322     28321     28323
     28325     28324     28326     28328     28327     28329     28331     28330     28332
     28334     28333     28335     28337     28336     28338     28340     28339     28341
     28343     28342     28344     28346     28345     28347     28349     28348     28350
     28352     28351     28353     28355     28354     28356     28358     28357     28359
     28361     28360     28362     28364     28363     28365     28367     28366     28368
     28370     28369     28371     28373     28372     28374     28376     28375     28377
     28379     28378     28380     28382     28381     28383     28385     28384     28386
     28388     28387     28389     28391     28390     28392     28394     28393     28395
     28397     28396     28398     28400     28399     28401     28403     28402     28404
     28406     28405     28407     28409     28408     28410     28412     28411     28413
     28415     28414     28416     28418     28417     28419     28421     28420     28422
     28424     28423     28425     28427     28426     28428     28430     28429     28431
     28433     28432     28434     28436     28435     28437     28439     28438     28440
     28442     28441     28443     28445     28444     28446     28448     28447     28449
     28451     28450     28452     28454     28453     28455     28457     28456     28458
     28460     28459     28461     28463     28462     28464     28466     28465     28467
     28469     28468     28470     28472     28471     28473     28475     28474     28476
     28478     28477     28479     28481     28480     28482     28484     28483     28485
     28487     28486     28488     28490     28489     28491     28493     28492     28494
     28496     28495     28497     28499     28498     28500     28502     28501     28503
     28505     28504     28506     28508     28507     28509     28511     28510     28512
     28514     28513     28515     28517     28516     28518     28520     28519     28521
     28523     28522     28524     28526     28525     28527     28529     28528     28530
     28532     28531     28533     28535     28534     28536     28538     28537     28539
     28541     28540     28542     28544     28543     28545     28547     28546     28548
     28550     28549     28551     28553     28552     28554     28556     28555     28557
     28559     28558     28560     28562     28561     28563     28565     28564     28566
     28568     28567     28569     28571     28570     28572     28574     28573     28575
     28577     28576     28578     28580     28579     28581     28583     28582     28584
     28586     28585     28587     28589     28588     28590     28592     28591     28593
     28595     28594     28596     28598     28597     28599     28601     28600     28602
     28604     28603     28605     28607     28606     28608     28610     28609     28611
     28613     28612     28614     28616     28615     28617     28619     28618     28620
     28622     28621     28623     28625     28624     28626     28628     28627     28629
     28631     28630     28632     28634     28633     28635     28637     28636     28638
     28640     28639     28641     28643     28642     28644     28646     28645     28647
     28649     28648     28650     28652     28651     28653     28655     28654     28656
     28658     28657     28659     28661     28660     28662     28664     28663     28665
     28667     28666     28668     28670     28669     28671     28673     28672     28674
     28676     28675     28677     28679     28678     28680     28682     28681     28683
     28685     28684     28686     28688     28687     28689     28691     28690     28692
     28694     28693     28695     28697     28696     28698     28700     28699     28701
     28703     28702     28704     28706     28705     28707     28709     28708     28710
     28712     28711     28713     28715     28714     28716     28718     28717     28719
     28721     28720     28722     28724     28723     28725     28727     28726     28728
     28730     28729     28731     28733     28732     28734     28736     28735     28737
     28739     28738     28740     28742     28741     28743     28745     28744     28746
     28748     28747     28749     28751     28750     28752     28754     28753     28755
     28757     28756     28758     28760     28759     28761     28763     28762     28764
     28766     28765     28767     28769     28768     28770     28772     28771     28773
     28775     28774     28776     28778     28777     28779     28781     28780     28782
     28784     28783     28785     28787     28786     28788     28790     28789     28791
     28793     28792     28794     28796     28795     28797     28799     28798     28800

     36300 !NPHI: dihedrals
         1         2        17        18         1         2        17        19
         1         2        17        23         2         1         5         6
         2         1         5         7         2         1         5         8
         2         1         9        10         2         1         9        11
         2         1         9        12         2         1        13        14
         2         1        13        15         2         1        13        16
         2        17        23        20         3         2         1         5
         3         2         1         9         3         2         1        13
         3         2        17        18         3         2        17        19
         3         2        17        23         4         2         1         5
         4         2         1         9         4         2         1        13
         4         2        17        18         4         2        17        19
         4         2        17        23         5         1         2        17
         5         1         9        10         5         1         9        11
         5         1         9        12         5         1        13        14
         5         1        13        15         5         1        13        16
         6         5         1         9         6         5         1        13
         7         5         1         9         7         5         1        13
         8         5         1         9         8         5         1        13
         9         1         2        17         9         1        13        14
         9         1        13        15         9         1        13        16
        10         9         1        13        11         9         1        13
        12         9         1        13        13         1         2        17
        17        23        20        21        17        23        20        22
        17        23        20        24        18        17        23        20
        19        17        23        20        20        24        25        26
        20        24        25        27        20        24        25        28
        21        20        24        25        22        20        24        25
        23        20        24        25        24        25        28        29
        24        25        28        30        24        25        28        36
        25        28        30        31        25        28        36        37
        25        28        36        38        25        28        36        39
        26        25        28        29        26        25        28        30
        26        25        28        36        27        25        28        29
        27        25        28        30        27        25        28        36
        28        30        31        32        28        30        31        33
        28        36        39        40        29        28        30        31
        29        28        36        37        29        28        36        38
        29        28        36        39        30        28        36        37
        30        28        36        38        30        28        36        39
        30        31        33        34        30        31        33        35
        30        31        33        45        31        30        28        36
        31        33        45        46        31        33        45        47
        31        33        45        48        32        31        33        34
        32        31        33        35        32        31        33        45
        33        45        48        49        33        45        48        50
        33        45        48        51        34        33        45        46
        34        33        45        47        34        33        45        48
        35        33        45        46        35        33        45        47
        35        33        45        48        36        39        40        41
        36        39        40        42        37        36        39        40
        38        36        39        40        39        40        42        43
        39        40        42        44        39        40        42        92
        40        42        92        93        40        42        92        94
        40        42        92        95        41        40        42        43
        41        40        42        44        41        40        42        92
        42        92        95        96        42        92        95        97
        42        92        95        98        43        42        92        93
        43        42        92        94        43        42        92        95
        44        42        92        93        44        42        92        94
        44        42        92        95        45        48        51        52
        45        48        51        53        45        48        51        54
        46        45        48        49        46        45        48        50
        46        45        48        51        47        45        48        49
        47        45        48        50        47        45        48        51
        48        51        54        55        48        51        54        56
        48        51        54        57        49        48        51        52
        49        48        51        53        49        48        51        54
        50        48        51        52        50        48        51        53
        50        48        51        54        51        54        57        58
        51        54        57        59        51        54        57        60
        52        51        54        55        52        51        54        56
        52        51        54        57        53        51        54        55
        53        51        54        56        53        51        54        57
        54        57        60        61        54        57        60        62
        54        57        60        63        55        54        57        58
        55        54        57        59        55        54        57        60
        56        54        57        58        56        54        57        59
        56        54        57        60        57        60        63        64
        57        60        63        65        58        57        60        61
        58        57        60        62        58        57        60        63
        59        57        60        61        59        57        60        62
        59        57        60        63        60        63        65        66
        60        63        65        67        61        60        63        64
        61        60        63        65        62        60        63        64
        62        60        63        65        63        65        67        68
        63        65        67        69        63        65        67        70
        64        63        65        66        64        63        65        67
        65        67        70        71        65        67        70        72
        65        67        70        73        66        65        67        68
        66        65        67        69        66        65        67        70
        67        70        73        74        67        70        73        75
        67        70        73        76        68        67        70        71
        68        67        70        72        68        67        70        73
        69        67        70        71        69        67        70        72
        69        67        70        73        70        73        76        77
        70        73        76        78        70        73        76        79
        71        70        73        74        71        70        73        75
        71        70        73        76        72        70        73        74
        72        70        73        75        72        70        73        76
        73        76        79        80        73        76        79        81
        73        76        79        82        74        73        76        77
        74        73        76        78        74        73        76        79
        75        73        76        77        75        73        76        78
        75        73        76        79        76        79        82        83
        76        79        82        84        76        79        82        85
        77        76        79        80        77        76        79        81
        77        76        79        82        78        76        79        80
        78        76        79        81        78        76        79        82
        79        82        85        86        79        82        85        87
        79        82        85        88        80        79        82        83
        80        79        82        84        80        79        82        85
        81        79        82        83        81        79        82        84
        81        79        82        85        82        85        88        89
        82        85        88        90        82        85        88        91
        83        82        85        86        83        82        85        87
        83        82        85        88        84        82        85        86
        84        82        85        87        84        82        85        88
        86        85        88        89        86        85        88        90
        86        85        88        91        87        85        88        89
        87        85        88        90        87        85        88        91
        92        95        98        99        92        95        98       100
        92        95        98       101        93        92        95        96
        93        92        95        97        93        92        95        98
        94        92        95        96        94        92        95        97
        94        92        95        98        95        98       101       102
        95        98       101       103        95        98       101       104
        96        95        98        99        96        95        98       100
        96        95        98       101        97        95        98        99
        97        95        98       100        97        95        98       101
        98       101       104       105        98       101       104       106
        98       101       104       107        99        98       101       102
        99        98       101       103        99        98       101       104
       100        98       101       102       100        98       101       103
       100        98       101       104       101       104       107       108
       101       104       107       109       101       104       107       110
       102       101       104       105       102       101       104       106
       102       101       104       107       103       101       104       105
       103       101       104       106       103       101       104       107
       104       107       110       111       104       107       110       112
       105       104       107       108       105       104       107       109
       105       104       107       110       106       104       107       108
       106       104       107       109       106       104       107       110
       107       110       112       113       107       110       112       114
       108       107       110       111       108       107       110       112
       109       107       110       111       109       107       110       112
       110       112       114       115       110       112       114       116
       110       112       114       117       111       110       112       113
       111       110       112       114       112       114       117       118
       112       114       117       119       112       114       117       120
       113       112       114       115       113       112       114       116
       113       112       114       117       114       117       120       121
       114       117       120       122       114       117       120       123
       115       114       117       118       115       114       117       119
       115       114       117       120       116       114       117       118
       116       114       117       119       116       114       117       120
       117       120       123       124       117       120       123       125
       117       120       123       126       118       117       120       121
       118       117       120       122       118       117       120       123
       119       117       120       121       119       117       120       122
       119       117       120       123       120       123       126       127
       120       123       126       128       120       123       126       129
       121       120       123       124       121       120       123       125
       121       120       123       126       122       120       123       124
       122       120       123       125       122       120       123       126
       123       126       129       130       123       126       129       131
       123       126       129       132       124       123       126       127
       124       123       126       128       124       123       126       129
       125       123       126       127       125       123       126       128
       125       123       126       129       126       129       132       133
       126       129       132       134       126       129       132       135
       127       126       129       130       127       126       129       131
       127       126       129       132       128       126       129       130
       128       126       129       131       128       126       129       132
       129       132       135       136       129       132       135       137
       129       132       135       138       130       129       132       133
       130       129       132       134       130       129       132       135
       131       129       132       133       131       129       132       134
       131       129       132       135       133       132       135       136
       133       132       135       137       133       132       135       138
       134       132       135       136       134       132       135       137
       134       132       135       138       139       140       155       156
       139       140       155       157       139       140       155       161
       140       139       143       144       140       139       143       145
       140       139       143       146       140       139       147       148
       140       139       147       149       140       139       147       150
       140       139       151       152       140       139       151       153
       140       139       151       154       140       155       161       158
       141       140       139       143       141       140       139       147
       141       140       139       151       141       140       155       156
       141       140       155       157       141       140       155       161
       142       140       139       143       142       140       139       147
       142       140       139       151       142       140       155       156
       142       140       155       157       142       140       155       161
       143       139       140       155       143       139       147       148
       143       139       147       149       143       139       147       150
       143       139       151       152       143       139       151       153
       143       139       151       154       144       143       139       147
       144       143       139       151       145       143       139       147
       145       143       139       151       146       143       139       147
       146       143       139       151       147       139       140       155
       147       139       151       152       147       139       151       153
       147       139       151       154       148       147       139       151
       149       147       139       151       150       147       139       151
       151       139       140       155       155       161       158       159
       155       161       158       160       155       161       158       162
       156       155       161       158       157       155       161       158
       158       162       163       164       158       162       163       165
       158       162       163       166       159       158       162       163
       160       158       162       163       161       158       162       163
       162       163       166       167       162       163       166       168
       162       163       166       174       163       166       168       169
       163       166       174       175       163       166       174       176
       163       166       174       177       164       163       166       167
       164       163       166       168       164       163       166       174
       165       163       166       167       165       163       166       168
       165       163       166       174       166       168       169       170
       166       168       169       171       166       174       177       178
       167       166       168       169       167       166       174       175
       167       166       174       176       167       166       174       177
       168       166       174       175       168       166       174       176
       168       166       174       177       168       169       171       172
       168       169       171       173       168       169       171       183
       169       168       166       174       169       171       183       184
       169       171       183       185       169       171       183       186
       170       169       171       172       170       169       171       173
       170       169       171       183       171       183       186       187
       171       183       186       188       171       183       186       189
       172       171       183       184       172       171       183       185
       172       171       183       186       173       171       183       184
       173       171       183       185       173       171       183       186
       174       177       178       179       174       177       178       180
       175       174       177       178       176       174       177       178
       177       178       180       181       177       178       180       182
       177       178       180       230       178       180       230       231
       178       180       230       232       178       180       230       233
       179       178       180       181       179       178       180       182
       179       178       180       230       180       230       233       234
       180       230       233       235       180       230       233       236
       181       180       230       231       181       180       230       232
       181       180       230       233       182       180       230       231
       182       180       230       232       182       180       230       233
       183       186       189       190       183       186       189       191
       183       186       189       192       184       183       186       187
       184       183       186       188       184       183       186       189
       185       183       186       187       185       183       186       188
       185       183       186       189       186       189       192       193
       186       189       192       194       186       189       192       195
       187       186       189       190       187       186       189       191
       187       186       189       192       188       186       189       190
       188       186       189       191       188       186       189       192
       189       192       195       196       189       192       195       197
       189       192       195       198       190       189       192       193
       190       189       192       194       190       189       192       195
       191       189       192       193       191       189       192       194
       191       189       192       195       192       195       198       199
       192       195       198       200       192       195       198       201
       193       192       195       196       193       192       195       197
       193       192       195       198       194       192       195       196
       194       192       195       197       194       192       195       198
       195       198       201       202       195       198       201       203
       196       195       198       199       196       195       198       200
       196       195       198       201       197       195       198       199
       197       195       198       200       197       195       198       201
       198       201       203       204       198       201       203       205
       199       198       201       202       199       198       201       203
       200       198       201       202       200       198       201       203
       201       203       205       206       201       203       205       207
       201       203       205       208       202       201       203       204
       202       201       203       205       203       205       208       209
       203       205       208       210       203       205       208       211
       204       203       205       206       204       203       205       207
       204       203       205       208       205       208       211       212
       205       208       211       213       205       208       211       214
       206       205       208       209       206       205       208       210
       206       205       208       211       207       205       208       209
       207       205       208       210       207       205       208       211
       208       211       214       215       208       211       214       216
       208       211       214       217       209       208       211       212
       209       208       211       213       209       208       211       214
       210       208       211       212       210       208       211       213
       210       208       211       214       211       214       217       218
       211       214       217       219       211       214       217       220
       212       211       214       215       212       211       214       216
       212       211       214       217       213       211       214       215
       213       211       214       216       213       211       214       217
       214       217       220       221       214       217       220       222
       214       217       220       223       215       214       217       218
       215       214       217       219       215       214       217       220
       216       214       217       218       216       214       217       219
       216       214       217       220       217       220       223       224
       217       220       223       225       217       220       223       226
       218       217       220       221       218       217       220       222
       218       217       220       223       219       217       220       221
       219       217       220       222       219       217       220       223
       220       223       226       227       220       223       226       228
       220       223       226       229       221       220       223       224
       221       220       223       225       221       220       223       226
       222       220       223       224       222       220       223       225
       222       220       223       226       224       223       226       227
       224       223       226       228       224       223       226       229
       225       223       226       227       225       223       226       228
       225       223       226       229       230       233       236       237
       230       233       236       238       230       233       236       239
       231       230       233       234       231       230       233       235
       231       230       233       236       232       230       233       234
       232       230       233       235       232       230       233       236
       233       236       239       240       233       236       239       241
       233       236       239       242       234       233       236       237
       234       233       236       238       234       233       236       239
       235       233       236       237       235       233       236       238
       235       233       236       239       236       239       242       243
       236       239       242       244       236       239       242       245
       237       236       239       240       237       236       239       241
       237       236       239       242       238       236       239       240
       238       236       239       241       238       236       239       242
       239       242       245       246       239       242       245       247
       239       242       245       248       240       239       242       243
       240       239       242       244       240       239       242       245
       241       239       242       243       241       239       242       244
       241       239       242       245       242       245       248       249
       242       245       248       250       243       242       245       246
       243       242       245       247       243       242       245       248
       244       242       245       246       244       242       245       247
       244       242       245       248       245       248       250       251
       245       248       250       252       246       245       248       249
       246       245       248       250       247       245       248       249
       247       245       248       250       248       250       252       253
       248       250       252       254       248       250       252       255
       249       248       250       251       249       248       250       252
       250       252       255       256       250       252       255       257
       250       252       255       258       251       250       252       253
       251       250       252       254       251       250       252       255
       252       255       258       259       252       255       258       260
       252       255       258       261       253       252       255       256
       253       252       255       257       253       252       255       258
       254       252       255       256       254       252       255       257
       254       252       255       258       255       258       261       262
       255       258       261       263       255       258       261       264
       256       255       258       259       256       255       258       260
       256       255       258       261       257       255       258       259
       257       255       258       260       257       255       258       261
       258       261       264       265       258       261       264       266
       258       261       264       267       259       258       261       262
       259       258       261       263       259       258       261       264
       260       258       261       262       260       258       261       263
       260       258       261       264       261       264       267       268
       261       264       267       269       261       264       267       270
       262       261       264       265       262       261       264       266
       262       261       264       267       263       261       264       265
       263       261       264       266       263       261       264       267
       264       267       270       271       264       267       270       272
       264       267       270       273       265       264       267       268
       265       264       267       269       265       264       267       270
       266       264       267       268       266       264       267       269
       266       264       267       270       267       270       273       274
       267       270       273       275       267       270       273       276
       268       267       270       271       268       267       270       272
       268       267       270       273       269       267       270       271
       269       267       270       272       269       267       270       273
       271       270       273       274       271       270       273       275
       271       270       273       276       272       270       273       274
       272       270       273       275       272       270       273       276
       277       278       293       294       277       278       293       295
       277       278       293       299       278       277       281       282
       278       277       281       283       278       277       281       284
       278       277       285       286       278       277       285       287
       278       277       285       288       278       277       289       290
       278       277       289       291       278       277       289       292
       278       293       299       296       279       278       277       281
       279       278       277       285       279       278       277       289
       279       278       293       294       279       278       293       295
       279       278       293       299       280       278       277       281
       280       278       277       285       280       278       277       289
       280       278       293       294       280       278       293       295
       280       278       293       299       281       277       278       293
       281       277       285       286       281       277       285       287
       281       277       285       288       281       277       289       290
       281       277       289       291       281       277       289       292
       282       281       277       285       282       281       277       289
       283       281       277       285       283       281       277       289
       284       281       277       285       284       281       277       289
       285       277       278       293       285       277       289       290
       285       277       289       291       285       277       289       292
       286       285       277       289       287       285       277       289
       288       285       277       289       289       277       278       293
       293       299       296       297       293       299       296       298
       293       299       296       300       294       293       299       296
       295       293       299       296       296       300       301       302
       296       300       301       303       296       300       301       304
       297       296       300       301       298       296       300       301
       299       296       300       301       300       301       304       305
       300       301       304       306       300       301       304       312
       301       304       306       307       301       304       312       313
       301       304       312       314       301       304       312       315
       302       301       304       305       302       301       304       306
       302       301       304       312       303       301       304       305
       303       301       304       306       303       301       304       312
       304       306       307       308       304       306       307       309
       304       312       315       316       305       304       306       307
       305       304       312       313       305       304       312       314
       305       304       312       315       306       304       312       313
       306       304       312       314       306       304       312       315
       306       307       309       310       306       307       309       311
       306       307       309       321       307       306       304       312
       307       309       321       322       307       309       321       323
       307       309       321       324       308       307       309       310
       308       307       309       311       308       307       309       321
       309       321       324       325       309       321       324       326
       309       321       324       327       310       309       321       322
       310       309       321       323       310       309       321       324
       311       309       321       322       311       309       321       323
       311       309       321       324       312       315       316       317
       312       315       316       318       313       312       315       316
       314       312       315       316       315       316       318       319
       315       316       318       320       315       316       318       368
       316       318       368       369       316       318       368       370
       316       318       368       371       317       316       318       319
       317       316       318       320       317       316       318       368
       318       368       371       372       318       368       371       373
       318       368       371       374       319       318       368       369
       319       318       368       370       319       318       368       371
       320       318       368       369       320       318       368       370
       320       318       368       371       321       324       327       328
       321       324       327       329       321       324       327       330
       322       321       324       325       322       321       324       326
       322       321       324       327       323       321       324       325
       323       321       324       326       323       321       324       327
       324       327       330       331       324       327       330       332
       324       327       330       333       325       324       327       328
       325       324       327       329       325       324       327       330
       326       324       327       328       326       324       327       329
       326       324       327       330       327       330       333       334
       327       330       333       335       327       330       333       336
       328       327       330       331       328       327       330       332
       328       327       330       333       329       327       330       331
       329       327       330       332       329       327       330       333
       330       333       336       337       330       333       336       338
       330       333       336       339       331       330       333       334
       331       330       333       335       331       330       333       336
       332       330       333       334       332       330       333       335
       332       330       333       336       333       336       339       340
       333       336       339       341       334       333       336       337
       334       333       336       338       334       333       336       339
       335       333       336       337       335       333       336       338
       335       333       336       339       336       339       341       342
       336       339       341       343       337       336       339       340
       337       336       339       341       338       336       339       340
       338       336       339       341       339       341       343       344
       339       341       343       345       339       341       343       346
       340       339       341       342       340       339       341       343
       341       343       346       347       341       343       346       348
       341       343       346       349       342       341       343       344
       342       341       343       345       342       341       343       346
       343       346       349       350       343       346       349       351
       343       346       349       352       344       343       346       347
       344       343       346       348       344       343       346       349
       345       343       346       347       345       343       346       348
       345       343       346       349       346       349       352       353
       346       349       352       354       346       349       352       355
       347       346       349       350       347       346       349       351
       347       346       349       352       348       346       349       350
       348       346       349       351       348       346       349       352
       349       352       355       356       349       352       355       357
       349       352       355       358       350       349       352       353
       350       349       352       354       350       349       352       355
       351       349       352       353       351       349       352       354
       351       349       352       355       352       355       358       359
       352       355       358       360       352       355       358       361
       353       352       355       356       353       352       355       357
       353       352       355       358       354       352       355       356
       354       352       355       357       354       352       355       358
       355       358       361       362       355       358       361       363
       355       358       361       364       356       355       358       359
       356       355       358       360       356       355       358       361
       357       355       358       359       357       355       358       360
       357       355       358       361       358       361       364       365
       358       361       364       366       358       361       364       367
       359       358       361       362       359       358       361       363
       359       358       361       364       360       358       361       362
       360       358       361       363       360       358       361       364
       362       361       364       365       362       361       364       366
       362       361       364       367       363       361       364       365
       363       361       364       366       363       361       364       367
       368       371       374       375       368       371       374       376
       368       371       374       377       369       368       371       372
       369       368       371       373       369       368       371       374
       370       368       371       372       370       368       371       373
       370       368       371       374       371       374       377       378
       371       374       377       379       371       374       377       380
       372       371       374       375       372       371       374       376
       372       371       374       377       373       371       374       375
       373       371       374       376       373       371       374       377
       374       377       380       381       374       377       380       382
       374       377       380       383       375       374       377       378
       375       374       377       379       375       374       377       380
       376       374       377       378       376       374       377       379
       376       374       377       380       377       380       383       384
       377       380       383       385       377       380       383       386
       378       377       380       381       378       377       380       382
       378       377       380       383       379       377       380       381
       379       377       380       382       379       377       380       383
       380       383       386       387       380       383       386       388
       381       380       383       384       381       380       383       385
       381       380       383       386       382       380       383       384
       382       380       383       385       382       380       383       386
       383       386       388       389       383       386       388       390
       384       383       386       387       384       383       386       388
       385       383       386       387       385       383       386       388
       386       388       390       391       386       388       390       392
       386       388       390       393       387       386       388       389
       387       386       388       390       388       390       393       394
       388       390       393       395       388       390       393       396
       389       388       390       391       389       388       390       392
       389       388       390       393       390       393       396       397
       390       393       396       398       390       393       396       399
       391       390       393       394       391       390       393       395
       391       390       393       396       392       390       393       394
       392       390       393       395       392       390       393       396
       393       396       399       400       393       396       399       401
       393       396       399       402       394       393       396       397
       394       393       396       398       394       393       396       399
       395       393       396       397       395       393       396       398
       395       393       396       399       396       399       402       403
       396       399       402       404       396       399       402       405
       397       396       399       400       397       396       399       401
       397       396       399       402       398       396       399       400
       398       396       399       401       398       396       399       402
       399       402       405       406       399       402       405       407
       399       402       405       408       400       399       402       403
       400       399       402       404       400       399       402       405
       401       399       402       403       401       399       402       404
       401       399       402       405       402       405       408       409
       402       405       408       410       402       405       408       411
       403       402       405       406       403       402       405       407
       403       402       405       408       404       402       405       406
       404       402       405       407       404       402       405       408
       405       408       411       412       405       408       411       413
       405       408       411       414       406       405       408       409
       406       405       408       410       406       405       408       411
       407       405       408       409       407       405       408       410
       407       405       408       411       409       408       411       412
       409       408       411       413       409       408       411       414
       410       408       411       412       410       408       411       413
       410       408       411       414       415       416       431       432
       415       416       431       433       415       416       431       437
       416       415       419       420       416       415       419       421
       416       415       419       422       416       415       423       424
       416       415       423       425       416       415       423       426
       416       415       427       428       416       415       427       429
       416       415       427       430       416       431       437       434
       417       416       415       419       417       416       415       423
       417       416       415       427       417       416       431       432
       417       416       431       433       417       416       431       437
       418       416       415       419       418       416       415       423
       418       416       415       427       418       416       431       432
       418       416       431       433       418       416       431       437
       419       415       416       431       419       415       423       424
       419       415       423       425       419       415       423       426
       419       415       427       428       419       415       427       429
       419       415       427       430       420       419       415       423
       420       419       415       427       421       419       415       423
       421       419       415       427       422       419       415       423
       422       419       415       427       423       415       416       431
       423       415       427       428       423       415       427       429
       423       415       427       430       424       423       415       427
       425       423       415       427       426       423       415       427
       427       415       416       431       431       437       434       435
       431       437       434       436       431       437       434       438
       432       431       437       434       433       431       437       434
       434       438       439       440       434       438       439       441
       434       438       439       442       435       434       438       439
       436       434       438       439       437       434       438       439
       438       439       442       443       438       439       442       444
       438       439       442       450       439       442       444       445
       439       442       450       451       439       442       450       452
       439       442       450       453       440       439       442       443
       440       439       442       444       440       439       442       450
       441       439       442       443       441       439       442       444
       441       439       442       450       442       444       445       446
       442       444       445       447       442       450       453       454
       443       442       444       445       443       442       450       451
       443       442       450       452       443       442       450       453
       444       442       450       451       444       442       450       452
       444       442       450       453       444       445       447       448
       444       445       447       449       444       445       447       459
       445       444       442       450       445       447       459       460
       445       447       459       461       445       447       459       462
       446       445       447       448       446       445       447       449
       446       445       447       459       447       459       462       463
       447       459       462       464       447       459       462       465
       448       447       459       460       448       447       459       461
       448       447       459       462       449       447       459       460
       449       447       459       461       449       447       459       462
       450       453       454       455       450       453       454       456
       451       450       453       454       452       450       453       454
       453       454       456       457       453       454       456       458
       453       454       456       506       454       456       506       507
       454       456       506       508       454       456       506       509
       455       454       456       457       455       454       456       458
       455       454       456       506       456       506       509       510
       456       506       509       511       456       506       509       512
       457       456       506       507       457       456       506       508
       457       456       506       509       458       456       506       507
       458       456       506       508       458       456       506       509
       459       462       465       466       459       462       465       467
       459       462       465       468       460       459       462       463
       460       459       462       464       460       459       462       465
       461       459       462       463       461       459       462       464
       461       459       462       465       462       465       468       469
       462       465       468       470       462       465       468       471
       463       462       465       466       463       462       465       467
       463       462       465       468       464       462       465       466
       464       462       465       467       464       462       465       468
       465       468       471       472       465       468       471       473
       465       468       471       474       466       465       468       469
       466       465       468       470       466       465       468       471
       467       465       468       469       467       465       468       470
       467       465       468       471       468       471       474       475
       468       471       474       476       468       471       474       477
       469       468       471       472       469       468       471       473
       469       468       471       474       470       468       471       472
       470       468       471       473       470       468       471       474
       471       474       477       478       471       474       477       479
       472       471       474       475       472       471       474       476
       472       471       474       477       473       471       474       475
       473       471       474       476       473       471       474       477
       474       477       479       480       474       477       479       481
       475       474       477       478       475       474       477       479
       476       474       477       478       476       474       477       479
       477       479       481       482       477       479       481       483
       477       479       481       484       478       477       479       480
       478       477       479       481       479       481       484       485
       479       481       484       486       479       481       484       487
       480       479       481       482       480       479       481       483
       480       479       481       484       481       484       487       488
       481       484       487       489       481       484       487       490
       482       481       484       485       482       481       484       486
       482       481       484       487       483       481       484       485
       483       481       484       486       483       481       484       487
       484       487       490       491       484       487       490       492
       484       487       490       493       485       484       487       488
       485       484       487       489       485       484       487       490
       486       484       487       488       486       484       487       489
       486       484       487       490       487       490       493       494
       487       490       493       495       487       490       493       496
       488       487       490       491       488       487       490       492
       488       487       490       493       489       487       490       491
       489       487       490       492       489       487       490       493
       490       493       496       497       490       493       496       498
       490       493       496       499       491       490       493       494
       491       490       493       495       491       490       493       496
       492       490       493       494       492       490       493       495
       492       490       493       496       493       496       499       500
       493       496       499       501       493       496       499       502
       494       493       496       497       494       493       496       498
       494       493       496       499       495       493       496       497
       495       493       496       498       495       493       496       499
       496       499       502       503       496       499       502       504
       496       499       502       505       497       496       499       500
       497       496       499       501       497       496       499       502
       498       496       499       500       498       496       499       501
       498       496       499       502       500       499       502       503
       500       499       502       504       500       499       502       505
       501       499       502       503       501       499       502       504
       501       499       502       505       506       509       512       513
       506       509       512       514       506       509       512       515
       507       506       509       510       507       506       509       511
       507       506       509       512       508       506       509       510
       508       506       509       511       508       506       509       512
       509       512       515       516       509       512       515       517
       509       512       515       518       510       509       512       513
       510       509       512       514       510       509       512       515
       511       509       512       513       511       509       512       514
       511       509       512       515       512       515       518       519
       512       515       518       520       512       515       518       521
       513       512       515       516       513       512       515       517
       513       512       515       518       514       512       515       516
       514       512       515       517       514       512       515       518
       515       518       521       522       515       518       521       523
       515       518       521       524       516       515       518       519
       516       515       518       520       516       515       518       521
       517       515       518       519       517       515       518       520
       517       515       518       521       518       521       524       525
       518       521       524       526       519       518       521       522
       519       518       521       523       519       518       521       524
       520       518       521       522       520       518       521       523
       520       518       521       524       521       524       526       527
       521       524       526       528       522       521       524       525
       522       521       524       526       523       521       524       525
       523       521       524       526       524       526       528       529
       524       526       528       530       524       526       528       531
       525       524       526       527       525       524       526       528
       526       528       531       532       526       528       531       533
       526       528       531       534       527       526       528       529
       527       526       528       530       527       526       528       531
       528       531       534       535       528       531       534       536
       528       531       534       537       529       528       531       532
       529       528       531       533       529       528       531       534
       530       528       531       532       530       528       531       533
       530       528       531       534       531       534       537       538
       531       534       537       539       531       534       537       540
       532       531       534       535       532       531       534       536
       532       531       534       537       533       531       534       535
       533       531       534       536       533       531       534       537
       534       537       540       541       534       537       540       542
       534       537       540       543       535       534       537       538
       535       534       537       539       535       534       537       540
       536       534       537       538       536       534       537       539
       536       534       537       540       537       540       543       544
       537       540       543       545       537       540       543       546
       538       537       540       541       538       537       540       542
       538       537       540       543       539       537       540       541
       539       537       540       542       539       537       540       543
       540       543       546       547       540       543       546       548
       540       543       546       549       541       540       543       544
       541       540       543       545       541       540       543       546
       542       540       543       544       542       540       543       545
       542       540       543       546       543       546       549       550
       543       546       549       551       543       546       549       552
       544       543       546       547       544       543       546       548
       544       543       546       549       545       543       546       547
       545       543       546       548       545       543       546       549
       547       546       549       550       547       546       549       551
       547       546       549       552       548       546       549       550
       548       546       549       551       548       546       549       552
       553       554       569       570       553       554       569       571
       553       554       569       575       554       553       557       558
       554       553       557       559       554       553       557       560
       554       553       561       562       554       553       561       563
       554       553       561       564       554       553       565       566
       554       553       565       567       554       553       565       568
       554       569       575       572       555       554       553       557
       555       554       553       561       555       554       553       565
       555       554       569       570       555       554       569       571
       555       554       569       575       556       554       553       557
       556       554       553       561       556       554       553       565
       556       554       569       570       556       554       569       571
       556       554       569       575       557       553       554       569
       557       553       561       562       557       553       561       563
       557       553       561       564       557       553       565       566
       557       553       565       567       557       553       565       568
       558       557       553       561       558       557       553       565
       559       557       553       561       559       557       553       565
       560       557       553       561       560       557       553       565
       561       553       554       569       561       553       565       566
       561       553       565       567       561       553       565       568
       562       561       553       565       563       561       553       565
       564       561       553       565       565       553       554       569
       569       575       572       573       569       575       572       574
       569       575       572       576       570       569       575       572
       571       569       575       572       572       576       577       578
       572       576       577       579       572       576       577       580
       573       572       576       577       574       572       576       577
       575       572       576       577       576       577       580       581
       576       577       580       582       576       577       580       588
       577       580       582       583       577       580       588       589
       577       580       588       590       577       580       588       591
       578       577       580       581       578       577       580       582
       578       577       580       588       579       577       580       581
       579       577       580       582       579       577       580       588
       580       582       583       584       580       582       583       585
       580       588       591       592       581       580       582       583
       581       580       588       589       581       580       588       590
       581       580       588       591       582       580       588       589
       582       580       588       590       582       580       588       591
       582       583       585       586       582       583       585       587
       582       583       585       597       583       582       580       588
       583       585       597       598       583       585       597       599
       583       585       597       600       584       583       585       586
       584       583       585       587       584       583       585       597
       585       597       600       601       585       597       600       602
       585       597       600       603       586       585       597       598
       586       585       597       599       586       585       597       600
       587       585       597       598       587       585       597       599
       587       585       597       600       588       591       592       593
       588       591       592       594       589       588       591       592
       590       588       591       592       591       592       594       595
       591       592       594       596       591       592       594       644
       592       594       644       645       592       594       644       646
       592       594       644       647       593       592       594       595
       593       592       594       596       593       592       594       644
       594       644       647       648       594       644       647       649
       594       644       647       650       595       594       644       645
       595       594       644       646       595       594       644       647
       596       594       644       645       596       594       644       646
       596       594       644       647       597       600       603       604
       597       600       603       605       597       600       603       606
       598       597       600       601       598       597       600       602
       598       597       600       603       599       597       600       601
       599       597       600       602       599       597       600       603
       600       603       606       607       600       603       606       608
       600       603       606       609       601       600       603       604
       601       600       603       605       601       600       603       606
       602       600       603       604       602       600       603       605
       602       600       603       606       603       606       609       610
       603       606       609       611       603       606       609       612
       604       603       606       607       604       603       606       608
       604       603       606       609       605       603       606       607
       605       603       606       608       605       603       606       609
       606       609       612       613       606       609       612       614
       606       609       612       615       607       606       609       610
       607       606       609       611       607       606       609       612
       608       606       609       610       608       606       609       611
       608       606       609       612       609       612       615       616
       609       612       615       617       610       609       612       613
       610       609       612       614       610       609       612       615
       611       609       612       613       611       609       612       614
       611       609       612       615       612       615       617       618
       612       615       617       619       613       612       615       616
       613       612       615       617       614       612       615       616
       614       612       615       617       615       617       619       620
       615       617       619       621       615       617       619       622
       616       615       617       618       616       615       617       619
       617       619       622       623       617       619       622       624
       617       619       622       625       618       617       619       620
       618       617       619       621       618       617       619       622
       619       622       625       626       619       622       625       627
       619       622       625       628       620       619       622       623
       620       619       622       624       620       619       622       625
       621       619       622       623       621       619       622       624
       621       619       622       625       622       625       628       629
       622       625       628       630       622       625       628       631
       623       622       625       626       623       622       625       627
       623       622       625       628       624       622       625       626
       624       622       625       627       624       622       625       628
       625       628       631       632       625       628       631       633
       625       628       631       634       626       625       628       629
       626       625       628       630       626       625       628       631
       627       625       628       629       627       625       628       630
       627       625       628       631       628       631       634       635
       628       631       634       636       628       631       634       637
       629       628       631       632       629       628       631       633
       629       628       631       634       630       628       631       632
       630       628       631       633       630       628       631       634
       631       634       637       638       631       634       637       639
       631       634       637       640       632       631       634       635
       632       631       634       636       632       631       634       637
       633       631       634       635       633       631       634       636
       633       631       634       637       634       637       640       641
       634       637       640       642       634       637       640       643
       635       634       637       638       635       634       637       639
       635       634       637       640       636       634       637       638
       636       634       637       639       636       634       637       640
       638       637       640       641       638       637       640       642
       638       637       640       643       639       637       640       641
       639       637       640       642       639       637       640       643
       644       647       650       651       644       647       650       652
       644       647       650       653       645       644       647       648
       645       644       647       649       645       644       647       650
       646       644       647       648       646       644       647       649
       646       644       647       650       647       650       653       654
       647       650       653       655       647       650       653       656
       648       647       650       651       648       647       650       652
       648       647       650       653       649       647       650       651
       649       647       650       652       649       647       650       653
       650       653       656       657       650       653       656       658
       650       653       656       659       651       650       653       654
       651       650       653       655       651       650       653       656
       652       650       653       654       652       650       653       655
       652       650       653       656       653       656       659       660
       653       656       659       661       653       656       659       662
       654       653       656       657       654       653       656       658
       654       653       656       659       655       653       656       657
       655       653       656       658       655       653       656       659
       656       659       662       663       656       659       662       664
       657       656       659       660       657       656       659       661
       657       656       659       662       658       656       659       660
       658       656       659       661       658       656       659       662
       659       662       664       665       659       662       664       666
       660       659       662       663       660       659       662       664
       661       659       662       663       661       659       662       664
       662       664       666       667       662       664       666       668
       662       664       666       669       663       662       664       665
       663       662       664       666       664       666       669       670
       664       666       669       671       664       666       669       672
       665       664       666       667       665       664       666       668
       665       664       666       669       666       669       672       673
       666       669       672       674       666       669       672       675
       667       666       669       670       667       666       669       671
       667       666       669       672       668       666       669       670
       668       666       669       671       668       666       669       672
       669       672       675       676       669       672       675       677
       669       672       675       678       670       669       672       673
       670       669       672       674       670       669       672       675
       671       669       672       673       671       669       672       674
       671       669       672       675       672       675       678       679
       672       675       678       680       672       675       678       681
       673       672       675       676       673       672       675       677
       673       672       675       678       674       672       675       676
       674       672       675       677       674       672       675       678
       675       678       681       682       675       678       681       683
       675       678       681       684       676       675       678       679
       676       675       678       680       676       675       678       681
       677       675       678       679       677       675       678       680
       677       675       678       681       678       681       684       685
       678       681       684       686       678       681       684       687
       679       678       681       682       679       678       681       683
       679       678       681       684       680       678       681       682
       680       678       681       683       680       678       681       684
       681       684       687       688       681       684       687       689
       681       684       687       690       682       681       684       685
       682       681       684       686       682       681       684       687
       683       681       684       685       683       681       684       686
       683       681       684       687       685       684       687       688
       685       684       687       689       685       684       687       690
       686       684       687       688       686       684       687       689
       686       684       687       690       691       692       707       708
       691       692       707       709       691       692       707       713
       692       691       695       696       692       691       695       697
       692       691       695       698       692       691       699       700
       692       691       699       701       692       691       699       702
       692       691       703       704       692       691       703       705
       692       691       703       706       692       707       713       710
       693       692       691       695       693       692       691       699
       693       692       691       703       693       692       707       708
       693       692       707       709       693       692       707       713
       694       692       691       695       694       692       691       699
       694       692       691       703       694       692       707       708
       694       692       707       709       694       692       707       713
       695       691       692       707       695       691       699       700
       695       691       699       701       695       691       699       702
       695       691       703       704       695       691       703       705
       695       691       703       706       696       695       691       699
       696       695       691       703       697       695       691       699
       697       695       691       703       698       695       691       699
       698       695       691       703       699       691       692       707
       699       691       703       704       699       691       703       705
       699       691       703       706       700       699       691       703
       701       699       691       703       702       699       691       703
       703       691       692       707       707       713       710       711
       707       713       710       712       707       713       710       714
       708       707       713       710       709       707       713       710
       710       714       715       716       710       714       715       717
       710       714       715       718       711       710       714       715
       712       710       714       715       713       710       714       715
       714       715       718       719       714       715       718       720
       714       715       718       726       715       718       720       721
       715       718       726       727       715       718       726       728
       715       718       726       729       716       715       718       719
       716       715       718       720       716       715       718       726
       717       715       718       719       717       715       718       720
       717       715       718       726       718       720       721       722
       718       720       721       723       718       726       729       730
       719       718       720       721       719       718       726       727
       719       718       726       728       719       718       726       729
       720       718       726       727       720       718       726       728
       720       718       726       729       720       721       723       724
       720       721       723       725       720       721       723       735
       721       720       718       726       721       723       735       736
       721       723       735       737       721       723       735       738
       722       721       723       724       722       721       723       725
       722       721       723       735       723       735       738       739
       723       735       738       740       723       735       738       741
       724       723       735       736       724       723       735       737
       724       723       735       738       725       723       735       736
       725       723       735       737       725       723       735       738
       726       729       730       731       726       729       730       732
       727       726       729       730       728       726       729       730
       729       730       732       733       729       730       732       734
       729       730       732       782       730       732       782       783
       730       732       782       784       730       732       782       785
       731       730       732       733       731       730       732       734
       731       730       732       782       732       782       785       786
       732       782       785       787       732       782       785       788
       733       732       782       783       733       732       782       784
       733       732       782       785       734       732       782       783
       734       732       782       784       734       732       782       785
       735       738       741       742       735       738       741       743
       735       738       741       744       736       735       738       739
       736       735       738       740       736       735       738       741
       737       735       738       739       737       735       738       740
       737       735       738       741       738       741       744       745
       738       741       744       746       738       741       744       747
       739       738       741       742       739       738       741       743
       739       738       741       744       740       738       741       742
       740       738       741       743       740       738       741       744
       741       744       747       748       741       744       747       749
       741       744       747       750       742       741       744       745
       742       741       744       746       742       741       744       747
       743       741       744       745       743       741       744       746
       743       741       744       747       744       747       750       751
       744       747       750       752       744       747       750       753
       745       744       747       748       745       744       747       749
       745       744       747       750       746       744       747       748
       746       744       747       749       746       744       747       750
       747       750       753       754       747       750       753       755
       748       747       750       751       748       747       750       752
       748       747       750       753       749       747       750       751
       749       747       750       752       749       747       750       753
       750       753       755       756       750       753       755       757
       751       750       753       754       751       750       753       755
       752       750       753       754       752       750       753       755
       753       755       757       758       753       755       757       759
       753       755       757       760       754       753       755       756
       754       753       755       757       755       757       760       761
       755       757       760       762       755       757       760       763
       756       755       757       758       756       755       757       759
       756       755       757       760       757       760       763       764
       757       760       763       765       757       760       763       766
       758       757       760       761       758       757       760       762
       758       757       760       763       759       757       760       761
       759       757       760       762       759       757       760       763
       760       763       766       767       760       763       766       768
       760       763       766       769       761       760       763       764
       761       760       763       765       761       760       763       766
       762       760       763       764       762       760       763       765
       762       760       763       766       763       766       769       770
       763       766       769       771       763       766       769       772
       764       763       766       767       764       763       766       768
       764       763       766       769       765       763       766       767
       765       763       766       768       765       763       766       769
       766       769       772       773       766       769       772       774
       766       769       772       775       767       766       769       770
       767       766       769       771       767       766       769       772
       768       766       769       770       768       766       769       771
       768       766       769       772       769       772       775       776
       769       772       775       777       769       772       775       778
       770       769       772       773       770       769       772       774
       770       769       772       775       771       769       772       773
       771       769       772       774       771       769       772       775
       772       775       778       779       772       775       778       780
       772       775       778       781       773       772       775       776
       773       772       775       777       773       772       775       778
       774       772       775       776       774       772       775       777
       774       772       775       778       776       775       778       779
       776       775       778       780       776       775       778       781
       777       775       778       779       777       775       778       780
       777       775       778       781       782       785       788       789
       782       785       788       790       782       785       788       791
       783       782       785       786       783       782       785       787
       783       782       785       788       784       782       785       786
       784       782       785       787       784       782       785       788
       785       788       791       792       785       788       791       793
       785       788       791       794       786       785       788       789
       786       785       788       790       786       785       788       791
       787       785       788       789       787       785       788       790
       787       785       788       791       788       791       794       795
       788       791       794       796       788       791       794       797
       789       788       791       792       789       788       791       793
       789       788       791       794       790       788       791       792
       790       788       791       793       790       788       791       794
       791       794       797       798       791       794       797       799
       791       794       797       800       792       791       794       795
       792       791       794       796       792       791       794       797
       793       791       794       795       793       791       794       796
       793       791       794       797       794       797       800       801
       794       797       800       802       795       794       797       798
       795       794       797       799       795       794       797       800
       796       794       797       798       796       794       797       799
       796       794       797       800       797       800       802       803
       797       800       802       804       798       797       800       801
       798       797       800       802       799       797       800       801
       799       797       800       802       800       802       804       805
       800       802       804       806       800       802       804       807
       801       800       802       803       801       800       802       804
       802       804       807       808       802       804       807       809
       802       804       807       810       803       802       804       805
       803       802       804       806       803       802       804       807
       804       807       810       811       804       807       810       812
       804       807       810       813       805       804       807       808
       805       804       807       809       805       804       807       810
       806       804       807       808       806       804       807       809
       806       804       807       810       807       810       813       814
       807       810       813       815       807       810       813       816
       808       807       810       811       808       807       810       812
       808       807       810       813       809       807       810       811
       809       807       810       812       809       807       810       813
       810       813       816       817       810       813       816       818
       810       813       816       819       811       810       813       814
       811       810       813       815       811       810       813       816
       812       810       813       814       812       810       813       815
       812       810       813       816       813       816       819       820
       813       816       819       821       813       816       819       822
       814       813       816       817       814       813       816       818
       814       813       816       819       815       813       816       817
       815       813       816       818       815       813       816       819
       816       819       822       823       816       819       822       824
       816       819       822       825       817       816       819       820
       817       816       819       821       817       816       819       822
       818       816       819       820       818       816       819       821
       818       816       819       822       819       822       825       826
       819       822       825       827       819       822       825       828
       820       819       822       823       820       819       822       824
       820       819       822       825       821       819       822       823
       821       819       822       824       821       819       822       825
       823       822       825       826       823       822       825       827
       823       822       825       828       824       822       825       826
       824       822       825       827       824       822       825       828
       829       830       845       846       829       830       845       847
       829       830       845       851       830       829       833       834
       830       829       833       835       830       829       833       836
       830       829       837       838       830       829       837       839
       830       829       837       840       830       829       841       842
       830       829       841       843       830       829       841       844
       830       845       851       848       831       830       829       833
       831       830       829       837       831       830       829       841
       831       830       845       846       831       830       845       847
       831       830       845       851       832       830       829       833
       832       830       829       837       832       830       829       841
       832       830       845       846       832       830       845       847
       832       830       845       851       833       829       830       845
       833       829       837       838       833       829       837       839
       833       829       837       840       833       829       841       842
       833       829       841       843       833       829       841       844
       834       833       829       837       834       833       829       841
       835       833       829       837       835       833       829       841
       836       833       829       837       836       833       829       841
       837       829       830       845       837       829       841       842
       837       829       841       843       837       829       841       844
       838       837       829       841       839       837       829       841
       840       837       829       841       841       829       830       845
       845       851       848       849       845       851       848       850
       845       851       848       852       846       845       851       848
       847       845       851       848       848       852       853       854
       848       852       853       855       848       852       853       856
       849       848       852       853       850       848       852       853
       851       848       852       853       852       853       856       857
       852       853       856       858       852       853       856       864
       853       856       858       859       853       856       864       865
       853       856       864       866       853       856       864       867
       854       853       856       857       854       853       856       858
       854       853       856       864       855       853       856       857
       855       853       856       858       855       853       856       864
       856       858       859       860       856       858       859       861
       856       864       867       868       857       856       858       859
       857       856       864       865       857       856       864       866
       857       856       864       867       858       856       864       865
       858       856       864       866       858       856       864       867
       858       859       861       862       858       859       861       863
       858       859       861       873       859       858       856       864
       859       861       873       874       859       861       873       875
       859       861       873       876       860       859       861       862
       860       859       861       863       860       859       861       873
       861       873       876       877       861       873       876       878
       861       873       876       879       862       861       873       874
       862       861       873       875       862       861       873       876
       863       861       873       874       863       861       873       875
       863       861       873       876       864       867       868       869
       864       867       868       870       865       864       867       868
       866       864       867       868       867       868       870       871
       867       868       870       872       867       868       870       920
       868       870       920       921       868       870       920       922
       868       870       920       923       869       868       870       871
       869       868       870       872       869       868       870       920
       870       920       923       924       870       920       923       925
       870       920       923       926       871       870       920       921
       871       870       920       922       871       870       920       923
       872       870       920       921       872       870       920       922
       872       870       920       923       873       876       879       880
       873       876       879       881       873       876       879       882
       874       873       876       877       874       873       876       878
       874       873       876       879       875       873       876       877
       875       873       876       878       875       873       876       879
       876       879       882       883       876       879       882       884
       876       879       882       885       877       876       879       880
       877       876       879       881       877       876       879       882
       878       876       879       880       878       876       879       881
       878       876       879       882       879       882       885       886
       879       882       885       887       879       882       885       888
       880       879       882       883       880       879       882       884
       880       879       882       885       881       879       882       883
       881       879       882       884       881       879       882       885
       882       885       888       889       882       885       888       890
       882       885       888       891       883       882       885       886
       883       882       885       887       883       882       885       888
       884       882       885       886       884       882       885       887
       884       882       885       888       885       888       891       892
       885       888       891       893       886       885       888       889
       886       885       888       890       886       885       888       891
       887       885       888       889       887       885       888       890
       887       885       888       891       888       891       893       894
       888       891       893       895       889       888       891       892
       889       888       891       893       890       888       891       892
       890       888       891       893       891       893       895       896
       891       893       895       897       891       893       895       898
       892       891       893       894       892       891       893       895
       893       895       898       899       893       895       898       900
       893       895       898       901       894       893       895       896
       894       893       895       897       894       893       895       898
       895       898       901       902       895       898       901       903
       895       898       901       904       896       895       898       899
       896       895       898       900       896       895       898       901
       897       895       898       899       897       895       898       900
       897       895       898       901       898       901       904       905
       898       901       904       906       898       901       904       907
       899       898       901       902       899       898       901       903
       899       898       901       904       900       898       901       902
       900       898       901       903       900       898       901       904
       901       904       907       908       901       904       907       909
       901       904       907       910       902       901       904       905
       902       901       904       906       902       901       904       907
       903       901       904       905       903       901       904       906
       903       901       904       907       904       907       910       911
       904       907       910       912       904       907       910       913
       905       904       907       908       905       904       907       909
       905       904       907       910       906       904       907       908
       906       904       907       909       906       904       907       910
       907       910       913       914       907       910       913       915
       907       910       913       916       908       907       910       911
       908       907       910       912       908       907       910       913
       909       907       910       911       909       907       910       912
       909       907       910       913       910       913       916       917
       910       913       916       918       910       913       916       919
       911       910       913       914       911       910       913       915
       911       910       913       916       912       910       913       914
       912       910       913       915       912       910       913       916
       914       913       916       917       914       913       916       918
       914       913       916       919       915       913       916       917
       915       913       916       918       915       913       916       919
       920       923       926       927       920       923       926       928
       920       923       926       929       921       920       923       924
       921       920       923       925       921       920       923       926
       922       920       923       924       922       920       923       925
       922       920       923       926       923       926       929       930
       923       926       929       931       923       926       929       932
       924       923       926       927       924       923       926       928
       924       923       926       929       925       923       926       927
       925       923       926       928       925       923       926       929
       926       929       932       933       926       929       932       934
       926       929       932       935       927       926       929       930
       927       926       929       931       927       926       929       932
       928       926       929       930       928       926       929       931
       928       926       929       932       929       932       935       936
       929       932       935       937       929       932       935       938
       930       929       932       933       930       929       932       934
       930       929       932       935       931       929       932       933
       931       929       932       934       931       929       932       935
       932       935       938       939       932       935       938       940
       933       932       935       936       933       932       935       937
       933       932       935       938       934       932       935       936
       934       932       935       937       934       932       935       938
       935       938       940       941       935       938       940       942
       936       935       938       939       936       935       938       940
       937       935       938       939       937       935       938       940
       938       940       942       943       938       940       942       944
       938       940       942       945       939       938       940       941
       939       938       940       942       940       942       945       946
       940       942       945       947       940       942       945       948
       941       940       942       943       941       940       942       944
       941       940       942       945       942       945       948       949
       942       945       948       950       942       945       948       951
       943       942       945       946       943       942       945       947
       943       942       945       948       944       942       945       946
       944       942       945       947       944       942       945       948
       945       948       951       952       945       948       951       953
       945       948       951       954       946       945       948       949
       946       945       948       950       946       945       948       951
       947       945       948       949       947       945       948       950
       947       945       948       951       948       951       954       955
       948       951       954       956       948       951       954       957
       949       948       951       952       949       948       951       953
       949       948       951       954       950       948       951       952
       950       948       951       953       950       948       951       954
       951       954       957       958       951       954       957       959
       951       954       957       960       952       951       954       955
       952       951       954       956       952       951       954       957
       953       951       954       955       953       951       954       956
       953       951       954       957       954       957       960       961
       954       957       960       962       954       957       960       963
       955       954       957       958       955       954       957       959
       955       954       957       960       956       954       957       958
       956       954       957       959       956       954       957       960
       957       960       963       964       957       960       963       965
       957       960       963       966       958       957       960       961
       958       957       960       962       958       957       960       963
       959       957       960       961       959       957       960       962
       959       957       960       963       961       960       963       964
       961       960       963       965       961       960       963       966
       962       960       963       964       962       960       963       965
       962       960       963       966       967       968       983       984
       967       968       983       985       967       968       983       989
       968       967       971       972       968       967       971       973
       968       967       971       974       968       967       975       976
       968       967       975       977       968       967       975       978
       968       967       979       980       968       967       979       981
       968       967       979       982       968       983       989       986
       969       968       967       971       969       968       967       975
       969       968       967       979       969       968       983       984
       969       968       983       985       969       968       983       989
       970       968       967       971       970       968       967       975
       970       968       967       979       970       968       983       984
       970       968       983       985       970       968       983       989
       971       967       968       983       971       967       975       976
       971       967       975       977       971       967       975       978
       971       967       979       980       971       967       979       981
       971       967       979       982       972       971       967       975
       972       971       967       979       973       971       967       975
       973       971       967       979       974       971       967       975
       974       971       967       979       975       967       968       983
       975       967       979       980       975       967       979       981
       975       967       979       982       976       975       967       979
       977       975       967       979       978       975       967       979
       979       967       968       983       983       989       986       987
       983       989       986       988       983       989       986       990
       984       983       989       986       985       983       989       986
       986       990       991       992       986       990       991       993
       986       990       991       994       987       986       990       991
       988       986       990       991       989       986       990       991
       990       991       994       995       990       991       994       996
       990       991       994      1002       991       994       996       997
       991       994      1002      1003       991       994      1002      1004
       991       994      1002      1005       992       991       994       995
       992       991       994       996       992       991       994      1002
       993       991       994       995       993       991       994       996
       993       991       994      1002       994       996       997       998
       994       996       997       999       994      1002      1005      1006
       995       994       996       997       995       994      1002      1003
       995       994      1002      1004       995       994      1002      1005
       996       994      1002      1003       996       994      1002      1004
       996       994      1002      1005       996       997       999      1000
       996       997       999      1001       996       997       999      1011
       997       996       994      1002       997       999      1011      1012
       997       999      1011      1013       997       999      1011      1014
       998       997       999      1000       998       997       999      1001
       998       997       999      1011       999      1011      1014      1015
       999      1011      1014      1016       999      1011      1014      1017
      1000       999      1011      1012      1000       999      1011      1013
      1000       999      1011      1014      1001       999      1011      1012
      1001       999      1011      1013      1001       999      1011      1014
      1002      1005      1006      1007      1002      1005      1006      1008
      1003      1002      1005      1006      1004      1002      1005      1006
      1005      1006      1008      1009      1005      1006      1008      1010
      1005      1006      1008      1058      1006      1008      1058      1059
      1006      1008      1058      1060      1006      1008      1058      1061
      1007      1006      1008      1009      1007      1006      1008      1010
      1007      1006      1008      1058      1008      1058      1061      1062
      1008      1058      1061      1063      1008      1058      1061      1064
      1009      1008      1058      1059      1009      1008      1058      1060
      1009      1008      1058      1061      1010      1008      1058      1059
      1010      1008      1058      1060      1010      1008      1058      1061
      1011      1014      1017      1018      1011      1014      1017      1019
      1011      1014      1017      1020      1012      1011      1014      1015
      1012      1011      1014      1016      1012      1011      1014      1017
      1013      1011      1014      1015      1013      1011      1014      1016
      1013      1011      1014      1017      1014      1017      1020      1021
      1014      1017      1020      1022      1014      1017      1020      1023
      1015      1014      1017      1018      1015      1014      1017      1019
      1015      1014      1017      1020      1016      1014      1017      1018
      1016      1014      1017      1019      1016      1014      1017      1020
      1017      1020      1023      1024      1017      1020      1023      1025
      1017      1020      1023      1026      1018      1017      1020      1021
      1018      1017      1020      1022      1018      1017      1020      1023
      1019      1017      1020      1021      1019      1017      1020      1022
      1019      1017      1020      1023      1020      1023      1026      1027
      1020      1023      1026      1028      1020      1023      1026      1029
      1021      1020      1023      1024      1021      1020      1023      1025
      1021      1020      1023      1026      1022      1020      1023      1024
      1022      1020      1023      1025      1022      1020      1023      1026
      1023      1026      1029      1030      1023      1026      1029      1031
      1024      1023      1026      1027      1024      1023      1026      1028
      1024      1023      1026      1029      1025      1023      1026      1027
      1025      1023      1026      1028      1025      1023      1026      1029
      1026      1029      1031      1032      1026      1029      1031      1033
      1027      1026      1029      1030      1027      1026      1029      1031
      1028      1026      1029      1030      1028      1026      1029      1031
      1029      1031      1033      1034      1029      1031      1033      1035
      1029      1031      1033      1036      1030      1029      1031      1032
      1030      1029      1031      1033      1031      1033      1036      1037
      1031      1033      1036      1038      1031      1033      1036      1039
      1032      1031      1033      1034      1032      1031      1033      1035
      1032      1031      1033      1036      1033      1036      1039      1040
      1033      1036      1039      1041      1033      1036      1039      1042
      1034      1033      1036      1037      1034      1033      1036      1038
      1034      1033      1036      1039      1035      1033      1036      1037
      1035      1033      1036      1038      1035      1033      1036      1039
      1036      1039      1042      1043      1036      1039      1042      1044
      1036      1039      1042      1045      1037      1036      1039      1040
      1037      1036      1039      1041      1037      1036      1039      1042
      1038      1036      1039      1040      1038      1036      1039      1041
      1038      1036      1039      1042      1039      1042      1045      1046
      1039      1042      1045      1047      1039      1042      1045      1048
      1040      1039      1042      1043      1040      1039      1042      1044
      1040      1039      1042      1045      1041      1039      1042      1043
      1041      1039      1042      1044      1041      1039      1042      1045
      1042      1045      1048      1049      1042      1045      1048      1050
      1042      1045      1048      1051      1043      1042      1045      1046
      1043      1042      1045      1047      1043      1042      1045      1048
      1044      1042      1045      1046      1044      1042      1045      1047
      1044      1042      1045      1048      1045      1048      1051      1052
      1045      1048      1051      1053      1045      1048      1051      1054
      1046      1045      1048      1049      1046      1045      1048      1050
      1046      1045      1048      1051      1047      1045      1048      1049
      1047      1045      1048      1050      1047      1045      1048      1051
      1048      1051      1054      1055      1048      1051      1054      1056
      1048      1051      1054      1057      1049      1048      1051      1052
      1049      1048      1051      1053      1049      1048      1051      1054
      1050      1048      1051      1052      1050      1048      1051      1053
      1050      1048      1051      1054      1052      1051      1054      1055
      1052      1051      1054      1056      1052      1051      1054      1057
      1053      1051      1054      1055      1053      1051      1054      1056
      1053      1051      1054      1057      1058      1061      1064      1065
      1058      1061      1064      1066      1058      1061      1064      1067
      1059      1058      1061      1062      1059      1058      1061      1063
      1059      1058      1061      1064      1060      1058      1061      1062
      1060      1058      1061      1063      1060      1058      1061      1064
      1061      1064      1067      1068      1061      1064      1067      1069
      1061      1064      1067      1070      1062      1061      1064      1065
      1062      1061      1064      1066      1062      1061      1064      1067
      1063      1061      1064      1065      1063      1061      1064      1066
      1063      1061      1064      1067      1064      1067      1070      1071
      1064      1067      1070      1072      1064      1067      1070      1073
      1065      1064      1067      1068      1065      1064      1067      1069
      1065      1064      1067      1070      1066      1064      1067      1068
      1066      1064      1067      1069      1066      1064      1067      1070
      1067      1070      1073      1074      1067      1070      1073      1075
      1067      1070      1073      1076      1068      1067      1070      1071
      1068      1067      1070      1072      1068      1067      1070      1073
      1069      1067      1070      1071      1069      1067      1070      1072
      1069      1067      1070      1073      1070      1073      1076      1077
      1070      1073      1076      1078      1071      1070      1073      1074
      1071      1070      1073      1075      1071      1070      1073      1076
      1072      1070      1073      1074      1072      1070      1073      1075
      1072      1070      1073      1076      1073      1076      1078      1079
      1073      1076      1078      1080      1074      1073      1076      1077
      1074      1073      1076      1078      1075      1073      1076      1077
      1075      1073      1076      1078      1076      1078      1080      1081
      1076      1078      1080      1082      1076      1078      1080      1083
      1077      1076      1078      1079      1077      1076      1078      1080
      1078      1080      1083      1084      1078      1080      1083      1085
      1078      1080      1083      1086      1079      1078      1080      1081
      1079      1078      1080      1082      1079      1078      1080      1083
      1080      1083      1086      1087      1080      1083      1086      1088
      1080      1083      1086      1089      1081      1080      1083      1084
      1081      1080      1083      1085      1081      1080      1083      1086
      1082      1080      1083      1084      1082      1080      1083      1085
      1082      1080      1083      1086      1083      1086      1089      1090
      1083      1086      1089      1091      1083      1086      1089      1092
      1084      1083      1086      1087      1084      1083      1086      1088
      1084      1083      1086      1089      1085      1083      1086      1087
      1085      1083      1086      1088      1085      1083      1086      1089
      1086      1089      1092      1093      1086      1089      1092      1094
      1086      1089      1092      1095      1087      1086      1089      1090
      1087      1086      1089      1091      1087      1086      1089      1092
      1088      1086      1089      1090      1088      1086      1089      1091
      1088      1086      1089      1092      1089      1092      1095      1096
      1089      1092      1095      1097      1089      1092      1095      1098
      1090      1089      1092      1093      1090      1089      1092      1094
      1090      1089      1092      1095      1091      1089      1092      1093
      1091      1089      1092      1094      1091      1089      1092      1095
      1092      1095      1098      1099      1092      1095      1098      1100
      1092      1095      1098      1101      1093      1092      1095      1096
      1093      1092      1095      1097      1093      1092      1095      1098
      1094      1092      1095      1096      1094      1092      1095      1097
      1094      1092      1095      1098      1095      1098      1101      1102
      1095      1098      1101      1103      1095      1098      1101      1104
      1096      1095      1098      1099      1096      1095      1098      1100
      1096      1095      1098      1101      1097      1095      1098      1099
      1097      1095      1098      1100      1097      1095      1098      1101
      1099      1098      1101      1102      1099      1098      1101      1103
      1099      1098      1101      1104      1100      1098      1101      1102
      1100      1098      1101      1103      1100      1098      1101      1104
      1105      1106      1121      1122      1105      1106      1121      1123
      1105      1106      1121      1127      1106      1105      1109      1110
      1106      1105      1109      1111      1106      1105      1109      1112
      1106      1105      1113      1114      1106      1105      1113      1115
      1106      1105      1113      1116      1106      1105      1117      1118
      1106      1105      1117      1119      1106      1105      1117      1120
      1106      1121      1127      1124      1107      1106      1105      1109
      1107      1106      1105      1113      1107      1106      1105      1117
      1107      1106      1121      1122      1107      1106      1121      1123
      1107      1106      1121      1127      1108      1106      1105      1109
      1108      1106      1105      1113      1108      1106      1105      1117
      1108      1106      1121      1122      1108      1106      1121      1123
      1108      1106      1121      1127      1109      1105      1106      1121
      1109      1105      1113      1114      1109      1105      1113      1115
      1109      1105      1113      1116      1109      1105      1117      1118
      1109      1105      1117      1119      1109      1105      1117      1120
      1110      1109      1105      1113      1110      1109      1105      1117
      1111      1109      1105      1113      1111      1109      1105      1117
      1112      1109      1105      1113      1112      1109      1105      1117
      1113      1105      1106      1121      1113      1105      1117      1118
      1113      1105      1117      1119      1113      1105      1117      1120
      1114      1113      1105      1117      1115      1113      1105      1117
      1116      1113      1105      1117      1117      1105      1106      1121
      1121      1127      1124      1125      1121      1127      1124      1126
      1121      1127      1124      1128      1122      1121      1127      1124
      1123      1121      1127      1124      1124      1128      1129      1130
      1124      1128      1129      1131      1124      1128      1129      1132
      1125      1124      1128      1129      1126      1124      1128      1129
      1127      1124      1128      1129      1128      1129      1132      1133
      1128      1129      1132      1134      1128      1129      1132      1140
      1129      1132      1134      1135      1129      1132      1140      1141
      1129      1132      1140      1142      1129      1132      1140      1143
      1130      1129      1132      1133      1130      1129      1132      1134
      1130      1129      1132      1140      1131      1129      1132      1133
      1131      1129      1132      1134      1131      1129      1132      1140
      1132      1134      1135      1136      1132      1134      1135      1137
      1132      1140      1143      1144      1133      1132      1134      1135
      1133      1132      1140      1141      1133      1132      1140      1142
      1133      1132      1140      1143      1134      1132      1140      1141
      1134      1132      1140      1142      1134      1132      1140      1143
      1134      1135      1137      1138      1134      1135      1137      1139
      1134      1135      1137      1149      1135      1134      1132      1140
      1135      1137      1149      1150      1135      1137      1149      1151
      1135      1137      1149      1152      1136      1135      1137      1138
      1136      1135      1137      1139      1136      1135      1137      1149
      1137      1149      1152      1153      1137      1149      1152      1154
      1137      1149      1152      1155      1138      1137      1149      1150
      1138      1137      1149      1151      1138      1137      1149      1152
      1139      1137      1149      1150      1139      1137      1149      1151
      1139      1137      1149      1152      1140      1143      1144      1145
      1140      1143      1144      1146      1141      1140      1143      1144
      1142      1140      1143      1144      1143      1144      1146      1147
      1143      1144      1146      1148      1143      1144      1146      1196
      1144      1146      1196      1197      1144      1146      1196      1198
      1144      1146      1196      1199      1145      1144      1146      1147
      1145      1144      1146      1148      1145      1144      1146      1196
      1146      1196      1199      1200      1146      1196      1199      1201
      1146      1196      1199      1202      1147      1146      1196      1197
      1147      1146      1196      1198      1147      1146      1196      1199
      1148      1146      1196      1197      1148      1146      1196      1198
      1148      1146      1196      1199      1149      1152      1155      1156
      1149      1152      1155      1157      1149      1152      1155      1158
      1150      1149      1152      1153      1150      1149      1152      1154
      1150      1149      1152      1155      1151      1149      1152      1153
      1151      1149      1152      1154      1151      1149      1152      1155
      1152      1155      1158      1159      1152      1155      1158      1160
      1152      1155      1158      1161      1153      1152      1155      1156
      1153      1152      1155      1157      1153      1152      1155      1158
      1154      1152      1155      1156      1154      1152      1155      1157
      1154      1152      1155      1158      1155      1158      1161      1162
      1155      1158      1161      1163      1155      1158      1161      1164
      1156      1155      1158      1159      1156      1155      1158      1160
      1156      1155      1158      1161      1157      1155      1158      1159
      1157      1155      1158      1160      1157      1155      1158      1161
      1158      1161      1164      1165      1158      1161      1164      1166
      1158      1161      1164      1167      1159      1158      1161      1162
      1159      1158      1161      1163      1159      1158      1161      1164
      1160      1158      1161      1162      1160      1158      1161      1163
      1160      1158      1161      1164      1161      1164      1167      1168
      1161      1164      1167      1169      1162      1161      1164      1165
      1162      1161      1164      1166      1162      1161      1164      1167
      1163      1161      1164      1165      1163      1161      1164      1166
      1163      1161      1164      1167      1164      1167      1169      1170
      1164      1167      1169      1171      1165      1164      1167      1168
      1165      1164      1167      1169      1166      1164      1167      1168
      1166      1164      1167      1169      1167      1169      1171      1172
      1167      1169      1171      1173      1167      1169      1171      1174
      1168      1167      1169      1170      1168      1167      1169      1171
      1169      1171      1174      1175      1169      1171      1174      1176
      1169      1171      1174      1177      1170      1169      1171      1172
      1170      1169      1171      1173      1170      1169      1171      1174
      1171      1174      1177      1178      1171      1174      1177      1179
      1171      1174      1177      1180      1172      1171      1174      1175
      1172      1171      1174      1176      1172      1171      1174      1177
      1173      1171      1174      1175      1173      1171      1174      1176
      1173      1171      1174      1177      1174      1177      1180      1181
      1174      1177      1180      1182      1174      1177      1180      1183
      1175      1174      1177      1178      1175      1174      1177      1179
      1175      1174      1177      1180      1176      1174      1177      1178
      1176      1174      1177      1179      1176      1174      1177      1180
      1177      1180      1183      1184      1177      1180      1183      1185
      1177      1180      1183      1186      1178      1177      1180      1181
      1178      1177      1180      1182      1178      1177      1180      1183
      1179      1177      1180      1181      1179      1177      1180      1182
      1179      1177      1180      1183      1180      1183      1186      1187
      1180      1183      1186      1188      1180      1183      1186      1189
      1181      1180      1183      1184      1181      1180      1183      1185
      1181      1180      1183      1186      1182      1180      1183      1184
      1182      1180      1183      1185      1182      1180      1183      1186
      1183      1186      1189      1190      1183      1186      1189      1191
      1183      1186      1189      1192      1184      1183      1186      1187
      1184      1183      1186      1188      1184      1183      1186      1189
      1185      1183      1186      1187      1185      1183      1186      1188
      1185      1183      1186      1189      1186      1189      1192      1193
      1186      1189      1192      1194      1186      1189      1192      1195
      1187      1186      1189      1190      1187      1186      1189      1191
      1187      1186      1189      1192      1188      1186      1189      1190
      1188      1186      1189      1191      1188      1186      1189      1192
      1190      1189      1192      1193      1190      1189      1192      1194
      1190      1189      1192      1195      1191      1189      1192      1193
      1191      1189      1192      1194      1191      1189      1192      1195
      1196      1199      1202      1203      1196      1199      1202      1204
      1196      1199      1202      1205      1197      1196      1199      1200
      1197      1196      1199      1201      1197      1196      1199      1202
      1198      1196      1199      1200      1198      1196      1199      1201
      1198      1196      1199      1202      1199      1202      1205      1206
      1199      1202      1205      1207      1199      1202      1205      1208
      1200      1199      1202      1203      1200      1199      1202      1204
      1200      1199      1202      1205      1201      1199      1202      1203
      1201      1199      1202      1204      1201      1199      1202      1205
      1202      1205      1208      1209      1202      1205      1208      1210
      1202      1205      1208      1211      1203      1202      1205      1206
      1203      1202      1205      1207      1203      1202      1205      1208
      1204      1202      1205      1206      1204      1202      1205      1207
      1204      1202      1205      1208      1205      1208      1211      1212
      1205      1208      1211      1213      1205      1208      1211      1214
      1206      1205      1208      1209      1206      1205      1208      1210
      1206      1205      1208      1211      1207      1205      1208      1209
      1207      1205      1208      1210      1207      1205      1208      1211
      1208      1211      1214      1215      1208      1211      1214      1216
      1209      1208      1211      1212      1209      1208      1211      1213
      1209      1208      1211      1214      1210      1208      1211      1212
      1210      1208      1211      1213      1210      1208      1211      1214
      1211      1214      1216      1217      1211      1214      1216      1218
      1212      1211      1214      1215      1212      1211      1214      1216
      1213      1211      1214      1215      1213      1211      1214      1216
      1214      1216      1218      1219      1214      1216      1218      1220
      1214      1216      1218      1221      1215      1214      1216      1217
      1215      1214      1216      1218      1216      1218      1221      1222
      1216      1218      1221      1223      1216      1218      1221      1224
      1217      1216      1218      1219      1217      1216      1218      1220
      1217      1216      1218      1221      1218      1221      1224      1225
      1218      1221      1224      1226      1218      1221      1224      1227
      1219      1218      1221      1222      1219      1218      1221      1223
      1219      1218      1221      1224      1220      1218      1221      1222
      1220      1218      1221      1223      1220      1218      1221      1224
      1221      1224      1227      1228      1221      1224      1227      1229
      1221      1224      1227      1230      1222      1221      1224      1225
      1222      1221      1224      1226      1222      1221      1224      1227
      1223      1221      1224      1225      1223      1221      1224      1226
      1223      1221      1224      1227      1224      1227      1230      1231
      1224      1227      1230      1232      1224      1227      1230      1233
      1225      1224      1227      1228      1225      1224      1227      1229
      1225      1224      1227      1230      1226      1224      1227      1228
      1226      1224      1227      1229      1226      1224      1227      1230
      1227      1230      1233      1234      1227      1230      1233      1235
      1227      1230      1233      1236      1228      1227      1230      1231
      1228      1227      1230      1232      1228      1227      1230      1233
      1229      1227      1230      1231      1229      1227      1230      1232
      1229      1227      1230      1233      1230      1233      1236      1237
      1230      1233      1236      1238      1230      1233      1236      1239
      1231      1230      1233      1234      1231      1230      1233      1235
      1231      1230      1233      1236      1232      1230      1233      1234
      1232      1230      1233      1235      1232      1230      1233      1236
      1233      1236      1239      1240      1233      1236      1239      1241
      1233      1236      1239      1242      1234      1233      1236      1237
      1234      1233      1236      1238      1234      1233      1236      1239
      1235      1233      1236      1237      1235      1233      1236      1238
      1235      1233      1236      1239      1237      1236      1239      1240
      1237      1236      1239      1241      1237      1236      1239      1242
      1238      1236      1239      1240      1238      1236      1239      1241
      1238      1236      1239      1242      1243      1244      1259      1260
      1243      1244      1259      1261      1243      1244      1259      1265
      1244      1243      1247      1248      1244      1243      1247      1249
      1244      1243      1247      1250      1244      1243      1251      1252
      1244      1243      1251      1253      1244      1243      1251      1254
      1244      1243      1255      1256      1244      1243      1255      1257
      1244      1243      1255      1258      1244      1259      1265      1262
      1245      1244      1243      1247      1245      1244      1243      1251
      1245      1244      1243      1255      1245      1244      1259      1260
      1245      1244      1259      1261      1245      1244      1259      1265
      1246      1244      1243      1247      1246      1244      1243      1251
      1246      1244      1243      1255      1246      1244      1259      1260
      1246      1244      1259      1261      1246      1244      1259      1265
      1247      1243      1244      1259      1247      1243      1251      1252
      1247      1243      1251      1253      1247      1243      1251      1254
      1247      1243      1255      1256      1247      1243      1255      1257
      1247      1243      1255      1258      1248      1247      1243      1251
      1248      1247      1243      1255      1249      1247      1243      1251
      1249      1247      1243      1255      1250      1247      1243      1251
      1250      1247      1243      1255      1251      1243      1244      1259
      1251      1243      1255      1256      1251      1243      1255      1257
      1251      1243      1255      1258      1252      1251      1243      1255
      1253      1251      1243      1255      1254      1251      1243      1255
      1255      1243      1244      1259      1259      1265      1262      1263
      1259      1265      1262      1264      1259      1265      1262      1266
      1260      1259      1265      1262      1261      1259      1265      1262
      1262      1266      1267      1268      1262      1266      1267      1269
      1262      1266      1267      1270      1263      1262      1266      1267
      1264      1262      1266      1267      1265      1262      1266      1267
      1266      1267      1270      1271      1266      1267      1270      1272
      1266      1267      1270      1278      1267      1270      1272      1273
      1267      1270      1278      1279      1267      1270      1278      1280
      1267      1270      1278      1281      1268      1267      1270      1271
      1268      1267      1270      1272      1268      1267      1270      1278
      1269      1267      1270      1271      1269      1267      1270      1272
      1269      1267      1270      1278      1270      1272      1273      1274
      1270      1272      1273      1275      1270      1278      1281      1282
      1271      1270      1272      1273      1271      1270      1278      1279
      1271      1270      1278      1280      1271      1270      1278      1281
      1272      1270      1278      1279      1272      1270      1278      1280
      1272      1270      1278      1281      1272      1273      1275      1276
      1272      1273      1275      1277      1272      1273      1275      1287
      1273      1272      1270      1278      1273      1275      1287      1288
      1273      1275      1287      1289      1273      1275      1287      1290
      1274      1273      1275      1276      1274      1273      1275      1277
      1274      1273      1275      1287      1275      1287      1290      1291
      1275      1287      1290      1292      1275      1287      1290      1293
      1276      1275      1287      1288      1276      1275      1287      1289
      1276      1275      1287      1290      1277      1275      1287      1288
      1277      1275      1287      1289      1277      1275      1287      1290
      1278      1281      1282      1283      1278      1281      1282      1284
      1279      1278      1281      1282      1280      1278      1281      1282
      1281      1282      1284      1285      1281      1282      1284      1286
      1281      1282      1284      1334      1282      1284      1334      1335
      1282      1284      1334      1336      1282      1284      1334      1337
      1283      1282      1284      1285      1283      1282      1284      1286
      1283      1282      1284      1334      1284      1334      1337      1338
      1284      1334      1337      1339      1284      1334      1337      1340
      1285      1284      1334      1335      1285      1284      1334      1336
      1285      1284      1334      1337      1286      1284      1334      1335
      1286      1284      1334      1336      1286      1284      1334      1337
      1287      1290      1293      1294      1287      1290      1293      1295
      1287      1290      1293      1296      1288      1287      1290      1291
      1288      1287      1290      1292      1288      1287      1290      1293
      1289      1287      1290      1291      1289      1287      1290      1292
      1289      1287      1290      1293      1290      1293      1296      1297
      1290      1293      1296      1298      1290      1293      1296      1299
      1291      1290      1293      1294      1291      1290      1293      1295
      1291      1290      1293      1296      1292      1290      1293      1294
      1292      1290      1293      1295      1292      1290      1293      1296
      1293      1296      1299      1300      1293      1296      1299      1301
      1293      1296      1299      1302      1294      1293      1296      1297
      1294      1293      1296      1298      1294      1293      1296      1299
      1295      1293      1296      1297      1295      1293      1296      1298
      1295      1293      1296      1299      1296      1299      1302      1303
      1296      1299      1302      1304      1296      1299      1302      1305
      1297      1296      1299      1300      1297      1296      1299      1301
      1297      1296      1299      1302      1298      1296      1299      1300
      1298      1296      1299      1301      1298      1296      1299      1302
      1299      1302      1305      1306      1299      1302      1305      1307
      1300      1299      1302      1303      1300      1299      1302      1304
      1300      1299      1302      1305      1301      1299      1302      1303
      1301      1299      1302      1304      1301      1299      1302      1305
      1302      1305      1307      1308      1302      1305      1307      1309
      1303      1302      1305      1306      1303      1302      1305      1307
      1304      1302      1305      1306      1304      1302      1305      1307
      1305      1307      1309      1310      1305      1307      1309      1311
      1305      1307      1309      1312      1306      1305      1307      1308
      1306      1305      1307      1309      1307      1309      1312      1313
      1307      1309      1312      1314      1307      1309      1312      1315
      1308      1307      1309      1310      1308      1307      1309      1311
      1308      1307      1309      1312      1309      1312      1315      1316
      1309      1312      1315      1317      1309      1312      1315      1318
      1310      1309      1312      1313      1310      1309      1312      1314
      1310      1309      1312      1315      1311      1309      1312      1313
      1311      1309      1312      1314      1311      1309      1312      1315
      1312      1315      1318      1319      1312      1315      1318      1320
      1312      1315      1318      1321      1313      1312      1315      1316
      1313      1312      1315      1317      1313      1312      1315      1318
      1314      1312      1315      1316      1314      1312      1315      1317
      1314      1312      1315      1318      1315      1318      1321      1322
      1315      1318      1321      1323      1315      1318      1321      1324
      1316      1315      1318      1319      1316      1315      1318      1320
      1316      1315      1318      1321      1317      1315      1318      1319
      1317      1315      1318      1320      1317      1315      1318      1321
      1318      1321      1324      1325      1318      1321      1324      1326
      1318      1321      1324      1327      1319      1318      1321      1322
      1319      1318      1321      1323      1319      1318      1321      1324
      1320      1318      1321      1322      1320      1318      1321      1323
      1320      1318      1321      1324      1321      1324      1327      1328
      1321      1324      1327      1329      1321      1324      1327      1330
      1322      1321      1324      1325      1322      1321      1324      1326
      1322      1321      1324      1327      1323      1321      1324      1325
      1323      1321      1324      1326      1323      1321      1324      1327
      1324      1327      1330      1331      1324      1327      1330      1332
      1324      1327      1330      1333      1325      1324      1327      1328
      1325      1324      1327      1329      1325      1324      1327      1330
      1326      1324      1327      1328      1326      1324      1327      1329
      1326      1324      1327      1330      1328      1327      1330      1331
      1328      1327      1330      1332      1328      1327      1330      1333
      1329      1327      1330      1331      1329      1327      1330      1332
      1329      1327      1330      1333      1334      1337      1340      1341
      1334      1337      1340      1342      1334      1337      1340      1343
      1335      1334      1337      1338      1335      1334      1337      1339
      1335      1334      1337      1340      1336      1334      1337      1338
      1336      1334      1337      1339      1336      1334      1337      1340
      1337      1340      1343      1344      1337      1340      1343      1345
      1337      1340      1343      1346      1338      1337      1340      1341
      1338      1337      1340      1342      1338      1337      1340      1343
      1339      1337      1340      1341      1339      1337      1340      1342
      1339      1337      1340      1343      1340      1343      1346      1347
      1340      1343      1346      1348      1340      1343      1346      1349
      1341      1340      1343      1344      1341      1340      1343      1345
      1341      1340      1343      1346      1342      1340      1343      1344
      1342      1340      1343      1345      1342      1340      1343      1346
      1343      1346      1349      1350      1343      1346      1349      1351
      1343      1346      1349      1352      1344      1343      1346      1347
      1344      1343      1346      1348      1344      1343      1346      1349
      1345      1343      1346      1347      1345      1343      1346      1348
      1345      1343      1346      1349      1346      1349      1352      1353
      1346      1349      1352      1354      1347      1346      1349      1350
      1347      1346      1349      1351      1347      1346      1349      1352
      1348      1346      1349      1350      1348      1346      1349      1351
      1348      1346      1349      1352      1349      1352      1354      1355
      1349      1352      1354      1356      1350      1349      1352      1353
      1350      1349      1352      1354      1351      1349      1352      1353
      1351      1349      1352      1354      1352      1354      1356      1357
      1352      1354      1356      1358      1352      1354      1356      1359
      1353      1352      1354      1355      1353      1352      1354      1356
      1354      1356      1359      1360      1354      1356      1359      1361
      1354      1356      1359      1362      1355      1354      1356      1357
      1355      1354      1356      1358      1355      1354      1356      1359
      1356      1359      1362      1363      1356      1359      1362      1364
      1356      1359      1362      1365      1357      1356      1359      1360
      1357      1356      1359      1361      1357      1356      1359      1362
      1358      1356      1359      1360      1358      1356      1359      1361
      1358      1356      1359      1362      1359      1362      1365      1366
      1359      1362      1365      1367      1359      1362      1365      1368
      1360      1359      1362      1363      1360      1359      1362      1364
      1360      1359      1362      1365      1361      1359      1362      1363
      1361      1359      1362      1364      1361      1359      1362      1365
      1362      1365      1368      1369      1362      1365      1368      1370
      1362      1365      1368      1371      1363      1362      1365      1366
      1363      1362      1365      1367      1363      1362      1365      1368
      1364      1362      1365      1366      1364      1362      1365      1367
      1364      1362      1365      1368      1365      1368      1371      1372
      1365      1368      1371      1373      1365      1368      1371      1374
      1366      1365      1368      1369      1366      1365      1368      1370
      1366      1365      1368      1371      1367      1365      1368      1369
      1367      1365      1368      1370      1367      1365      1368      1371
      1368      1371      1374      1375      1368      1371      1374      1376
      1368      1371      1374      1377      1369      1368      1371      1372
      1369      1368      1371      1373      1369      1368      1371      1374
      1370      1368      1371      1372      1370      1368      1371      1373
      1370      1368      1371      1374      1371      1374      1377      1378
      1371      1374      1377      1379      1371      1374      1377      1380
      1372      1371      1374      1375      1372      1371      1374      1376
      1372      1371      1374      1377      1373      1371      1374      1375
      1373      1371      1374      1376      1373      1371      1374      1377
      1375      1374      1377      1378      1375      1374      1377      1379
      1375      1374      1377      1380      1376      1374      1377      1378
      1376      1374      1377      1379      1376      1374      1377      1380
      1381      1382      1397      1398      1381      1382      1397      1399
      1381      1382      1397      1403      1382      1381      1385      1386
      1382      1381      1385      1387      1382      1381      1385      1388
      1382      1381      1389      1390      1382      1381      1389      1391
      1382      1381      1389      1392      1382      1381      1393      1394
      1382      1381      1393      1395      1382      1381      1393      1396
      1382      1397      1403      1400      1383      1382      1381      1385
      1383      1382      1381      1389      1383      1382      1381      1393
      1383      1382      1397      1398      1383      1382      1397      1399
      1383      1382      1397      1403      1384      1382      1381      1385
      1384      1382      1381      1389      1384      1382      1381      1393
      1384      1382      1397      1398      1384      1382      1397      1399
      1384      1382      1397      1403      1385      1381      1382      1397
      1385      1381      1389      1390      1385      1381      1389      1391
      1385      1381      1389      1392      1385      1381      1393      1394
      1385      1381      1393      1395      1385      1381      1393      1396
      1386      1385      1381      1389      1386      1385      1381      1393
      1387      1385      1381      1389      1387      1385      1381      1393
      1388      1385      1381      1389      1388      1385      1381      1393
      1389      1381      1382      1397      1389      1381      1393      1394
      1389      1381      1393      1395      1389      1381      1393      1396
      1390      1389      1381      1393      1391      1389      1381      1393
      1392      1389      1381      1393      1393      1381      1382      1397
      1397      1403      1400      1401      1397      1403      1400      1402
      1397      1403      1400      1404      1398      1397      1403      1400
      1399      1397      1403      1400      1400      1404      1405      1406
      1400      1404      1405      1407      1400      1404      1405      1408
      1401      1400      1404      1405      1402      1400      1404      1405
      1403      1400      1404      1405      1404      1405      1408      1409
      1404      1405      1408      1410      1404      1405      1408      1416
      1405      1408      1410      1411      1405      1408      1416      1417
      1405      1408      1416      1418      1405      1408      1416      1419
      1406      1405      1408      1409      1406      1405      1408      1410
      1406      1405      1408      1416      1407      1405      1408      1409
      1407      1405      1408      1410      1407      1405      1408      1416
      1408      1410      1411      1412      1408      1410      1411      1413
      1408      1416      1419      1420      1409      1408      1410      1411
      1409      1408      1416      1417      1409      1408      1416      1418
      1409      1408      1416      1419      1410      1408      1416      1417
      1410      1408      1416      1418      1410      1408      1416      1419
      1410      1411      1413      1414      1410      1411      1413      1415
      1410      1411      1413      1425      1411      1410      1408      1416
      1411      1413      1425      1426      1411      1413      1425      1427
      1411      1413      1425      1428      1412      1411      1413      1414
      1412      1411      1413      1415      1412      1411      1413      1425
      1413      1425      1428      1429      1413      1425      1428      1430
      1413      1425      1428      1431      1414      1413      1425      1426
      1414      1413      1425      1427      1414      1413      1425      1428
      1415      1413      1425      1426      1415      1413      1425      1427
      1415      1413      1425      1428      1416      1419      1420      1421
      1416      1419      1420      1422      1417      1416      1419      1420
      1418      1416      1419      1420      1419      1420      1422      1423
      1419      1420      1422      1424      1419      1420      1422      1472
      1420      1422      1472      1473      1420      1422      1472      1474
      1420      1422      1472      1475      1421      1420      1422      1423
      1421      1420      1422      1424      1421      1420      1422      1472
      1422      1472      1475      1476      1422      1472      1475      1477
      1422      1472      1475      1478      1423      1422      1472      1473
      1423      1422      1472      1474      1423      1422      1472      1475
      1424      1422      1472      1473      1424      1422      1472      1474
      1424      1422      1472      1475      1425      1428      1431      1432
      1425      1428      1431      1433      1425      1428      1431      1434
      1426      1425      1428      1429      1426      1425      1428      1430
      1426      1425      1428      1431      1427      1425      1428      1429
      1427      1425      1428      1430      1427      1425      1428      1431
      1428      1431      1434      1435      1428      1431      1434      1436
      1428      1431      1434      1437      1429      1428      1431      1432
      1429      1428      1431      1433      1429      1428      1431      1434
      1430      1428      1431      1432      1430      1428      1431      1433
      1430      1428      1431      1434      1431      1434      1437      1438
      1431      1434      1437      1439      1431      1434      1437      1440
      1432      1431      1434      1435      1432      1431      1434      1436
      1432      1431      1434      1437      1433      1431      1434      1435
      1433      1431      1434      1436      1433      1431      1434      1437
      1434      1437      1440      1441      1434      1437      1440      1442
      1434      1437      1440      1443      1435      1434      1437      1438
      1435      1434      1437      1439      1435      1434      1437      1440
      1436      1434      1437      1438      1436      1434      1437      1439
      1436      1434      1437      1440      1437      1440      1443      1444
      1437      1440      1443      1445      1438      1437      1440      1441
      1438      1437      1440      1442      1438      1437      1440      1443
      1439      1437      1440      1441      1439      1437      1440      1442
      1439      1437      1440      1443      1440      1443      1445      1446
      1440      1443      1445      1447      1441      1440      1443      1444
      1441      1440      1443      1445      1442      1440      1443      1444
      1442      1440      1443      1445      1443      1445      1447      1448
      1443      1445      1447      1449      1443      1445      1447      1450
      1444      1443      1445      1446      1444      1443      1445      1447
      1445      1447      1450      1451      1445      1447      1450      1452
      1445      1447      1450      1453      1446      1445      1447      1448
      1446      1445      1447      1449      1446      1445      1447      1450
      1447      1450      1453      1454      1447      1450      1453      1455
      1447      1450      1453      1456      1448      1447      1450      1451
      1448      1447      1450      1452      1448      1447      1450      1453
      1449      1447      1450      1451      1449      1447      1450      1452
      1449      1447      1450      1453      1450      1453      1456      1457
      1450      1453      1456      1458      1450      1453      1456      1459
      1451      1450      1453      1454      1451      1450      1453      1455
      1451      1450      1453      1456      1452      1450      1453      1454
      1452      1450      1453      1455      1452      1450      1453      1456
      1453      1456      1459      1460      1453      1456      1459      1461
      1453      1456      1459      1462      1454      1453      1456      1457
      1454      1453      1456      1458      1454      1453      1456      1459
      1455      1453      1456      1457      1455      1453      1456      1458
      1455      1453      1456      1459      1456      1459      1462      1463
      1456      1459      1462      1464      1456      1459      1462      1465
      1457      1456      1459      1460      1457      1456      1459      1461
      1457      1456      1459      1462      1458      1456      1459      1460
      1458      1456      1459      1461      1458      1456      1459      1462
      1459      1462      1465      1466      1459      1462      1465      1467
      1459      1462      1465      1468      1460      1459      1462      1463
      1460      1459      1462      1464      1460      1459      1462      1465
      1461      1459      1462      1463      1461      1459      1462      1464
      1461      1459      1462      1465      1462      1465      1468      1469
      1462      1465      1468      1470      1462      1465      1468      1471
      1463      1462      1465      1466      1463      1462      1465      1467
      1463      1462      1465      1468      1464      1462      1465      1466
      1464      1462      1465      1467      1464      1462      1465      1468
      1466      1465      1468      1469      1466      1465      1468      1470
      1466      1465      1468      1471      1467      1465      1468      1469
      1467      1465      1468      1470      1467      1465      1468      1471
      1472      1475      1478      1479      1472      1475      1478      1480
      1472      1475      1478      1481      1473      1472      1475      1476
      1473      1472      1475      1477      1473      1472      1475      1478
      1474      1472      1475      1476      1474      1472      1475      1477
      1474      1472      1475      1478      1475      1478      1481      1482
      1475      1478      1481      1483      1475      1478      1481      1484
      1476      1475      1478      1479      1476      1475      1478      1480
      1476      1475      1478      1481      1477      1475      1478      1479
      1477      1475      1478      1480      1477      1475      1478      1481
      1478      1481      1484      1485      1478      1481      1484      1486
      1478      1481      1484      1487      1479      1478      1481      1482
      1479      1478      1481      1483      1479      1478      1481      1484
      1480      1478      1481      1482      1480      1478      1481      1483
      1480      1478      1481      1484      1481      1484      1487      1488
      1481      1484      1487      1489      1481      1484      1487      1490
      1482      1481      1484      1485      1482      1481      1484      1486
      1482      1481      1484      1487      1483      1481      1484      1485
      1483      1481      1484      1486      1483      1481      1484      1487
      1484      1487      1490      1491      1484      1487      1490      1492
      1485      1484      1487      1488      1485      1484      1487      1489
      1485      1484      1487      1490      1486      1484      1487      1488
      1486      1484      1487      1489      1486      1484      1487      1490
      1487      1490      1492      1493      1487      1490      1492      1494
      1488      1487      1490      1491      1488      1487      1490      1492
      1489      1487      1490      1491      1489      1487      1490      1492
      1490      1492      1494      1495      1490      1492      1494      1496
      1490      1492      1494      1497      1491      1490      1492      1493
      1491      1490      1492      1494      1492      1494      1497      1498
      1492      1494      1497      1499      1492      1494      1497      1500
      1493      1492      1494      1495      1493      1492      1494      1496
      1493      1492      1494      1497      1494      1497      1500      1501
      1494      1497      1500      1502      1494      1497      1500      1503
      1495      1494      1497      1498      1495      1494      1497      1499
      1495      1494      1497      1500      1496      1494      1497      1498
      1496      1494      1497      1499      1496      1494      1497      1500
      1497      1500      1503      1504      1497      1500      1503      1505
      1497      1500      1503      1506      1498      1497      1500      1501
      1498      1497      1500      1502      1498      1497      1500      1503
      1499      1497      1500      1501      1499      1497      1500      1502
      1499      1497      1500      1503      1500      1503      1506      1507
      1500      1503      1506      1508      1500      1503      1506      1509
      1501      1500      1503      1504      1501      1500      1503      1505
      1501      1500      1503      1506      1502      1500      1503      1504
      1502      1500      1503      1505      1502      1500      1503      1506
      1503      1506      1509      1510      1503      1506      1509      1511
      1503      1506      1509      1512      1504      1503      1506      1507
      1504      1503      1506      1508      1504      1503      1506      1509
      1505      1503      1506      1507      1505      1503      1506      1508
      1505      1503      1506      1509      1506      1509      1512      1513
      1506      1509      1512      1514      1506      1509      1512      1515
      1507      1506      1509      1510      1507      1506      1509      1511
      1507      1506      1509      1512      1508      1506      1509      1510
      1508      1506      1509      1511      1508      1506      1509      1512
      1509      1512      1515      1516      1509      1512      1515      1517
      1509      1512      1515      1518      1510      1509      1512      1513
      1510      1509      1512      1514      1510      1509      1512      1515
      1511      1509      1512      1513      1511      1509      1512      1514
      1511      1509      1512      1515      1513      1512      1515      1516
      1513      1512      1515      1517      1513      1512      1515      1518
      1514      1512      1515      1516      1514      1512      1515      1517
      1514      1512      1515      1518      1519      1520      1535      1536
      1519      1520      1535      1537      1519      1520      1535      1541
      1520      1519      1523      1524      1520      1519      1523      1525
      1520      1519      1523      1526      1520      1519      1527      1528
      1520      1519      1527      1529      1520      1519      1527      1530
      1520      1519      1531      1532      1520      1519      1531      1533
      1520      1519      1531      1534      1520      1535      1541      1538
      1521      1520      1519      1523      1521      1520      1519      1527
      1521      1520      1519      1531      1521      1520      1535      1536
      1521      1520      1535      1537      1521      1520      1535      1541
      1522      1520      1519      1523      1522      1520      1519      1527
      1522      1520      1519      1531      1522      1520      1535      1536
      1522      1520      1535      1537      1522      1520      1535      1541
      1523      1519      1520      1535      1523      1519      1527      1528
      1523      1519      1527      1529      1523      1519      1527      1530
      1523      1519      1531      1532      1523      1519      1531      1533
      1523      1519      1531      1534      1524      1523      1519      1527
      1524      1523      1519      1531      1525      1523      1519      1527
      1525      1523      1519      1531      1526      1523      1519      1527
      1526      1523      1519      1531      1527      1519      1520      1535
      1527      1519      1531      1532      1527      1519      1531      1533
      1527      1519      1531      1534      1528      1527      1519      1531
      1529      1527      1519      1531      1530      1527      1519      1531
      1531      1519      1520      1535      1535      1541      1538      1539
      1535      1541      1538      1540      1535      1541      1538      1542
      1536      1535      1541      1538      1537      1535      1541      1538
      1538      1542      1543      1544      1538      1542      1543      1545
      1538      1542      1543      1546      1539      1538      1542      1543
      1540      1538      1542      1543      1541      1538      1542      1543
      1542      1543      1546      1547      1542      1543      1546      1548
      1542      1543      1546      1554      1543      1546      1548      1549
      1543      1546      1554      1555      1543      1546      1554      1556
      1543      1546      1554      1557      1544      1543      1546      1547
      1544      1543      1546      1548      1544      1543      1546      1554
      1545      1543      1546      1547      1545      1543      1546      1548
      1545      1543      1546      1554      1546      1548      1549      1550
      1546      1548      1549      1551      1546      1554      1557      1558
      1547      1546      1548      1549      1547      1546      1554      1555
      1547      1546      1554      1556      1547      1546      1554      1557
      1548      1546      1554      1555      1548      1546      1554      1556
      1548      1546      1554      1557      1548      1549      1551      1552
      1548      1549      1551      1553      1548      1549      1551      1563
      1549      1548      1546      1554      1549      1551      1563      1564
      1549      1551      1563      1565      1549      1551      1563      1566
      1550      1549      1551      1552      1550      1549      1551      1553
      1550      1549      1551      1563      1551      1563      1566      1567
      1551      1563      1566      1568      1551      1563      1566      1569
      1552      1551      1563      1564      1552      1551      1563      1565
      1552      1551      1563      1566      1553      1551      1563      1564
      1553      1551      1563      1565      1553      1551      1563      1566
      1554      1557      1558      1559      1554      1557      1558      1560
      1555      1554      1557      1558      1556      1554      1557      1558
      1557      1558      1560      1561      1557      1558      1560      1562
      1557      1558      1560      1610      1558      1560      1610      1611
      1558      1560      1610      1612      1558      1560      1610      1613
      1559      1558      1560      1561      1559      1558      1560      1562
      1559      1558      1560      1610      1560      1610      1613      1614
      1560      1610      1613      1615      1560      1610      1613      1616
      1561      1560      1610      1611      1561      1560      1610      1612
      1561      1560      1610      1613      1562      1560      1610      1611
      1562      1560      1610      1612      1562      1560      1610      1613
      1563      1566      1569      1570      1563      1566      1569      1571
      1563      1566      1569      1572      1564      1563      1566      1567
      1564      1563      1566      1568      1564      1563      1566      1569
      1565      1563      1566      1567      1565      1563      1566      1568
      1565      1563      1566      1569      1566      1569      1572      1573
      1566      1569      1572      1574      1566      1569      1572      1575
      1567      1566      1569      1570      1567      1566      1569      1571
      1567      1566      1569      1572      1568      1566      1569      1570
      1568      1566      1569      1571      1568      1566      1569      1572
      1569      1572      1575      1576      1569      1572      1575      1577
      1569      1572      1575      1578      1570      1569      1572      1573
      1570      1569      1572      1574      1570      1569      1572      1575
      1571      1569      1572      1573      1571      1569      1572      1574
      1571      1569      1572      1575      1572      1575      1578      1579
      1572      1575      1578      1580      1572      1575      1578      1581
      1573      1572      1575      1576      1573      1572      1575      1577
      1573      1572      1575      1578      1574      1572      1575      1576
      1574      1572      1575      1577      1574      1572      1575      1578
      1575      1578      1581      1582      1575      1578      1581      1583
      1576      1575      1578      1579      1576      1575      1578      1580
      1576      1575      1578      1581      1577      1575      1578      1579
      1577      1575      1578      1580      1577      1575      1578      1581
      1578      1581      1583      1584      1578      1581      1583      1585
      1579      1578      1581      1582      1579      1578      1581      1583
      1580      1578      1581      1582      1580      1578      1581      1583
      1581      1583      1585      1586      1581      1583      1585      1587
      1581      1583      1585      1588      1582      1581      1583      1584
      1582      1581      1583      1585      1583      1585      1588      1589
      1583      1585      1588      1590      1583      1585      1588      1591
      1584      1583      1585      1586      1584      1583      1585      1587
      1584      1583      1585      1588      1585      1588      1591      1592
      1585      1588      1591      1593      1585      1588      1591      1594
      1586      1585      1588      1589      1586      1585      1588      1590
      1586      1585      1588      1591      1587      1585      1588      1589
      1587      1585      1588      1590      1587      1585      1588      1591
      1588      1591      1594      1595      1588      1591      1594      1596
      1588      1591      1594      1597      1589      1588      1591      1592
      1589      1588      1591      1593      1589      1588      1591      1594
      1590      1588      1591      1592      1590      1588      1591      1593
      1590      1588      1591      1594      1591      1594      1597      1598
      1591      1594      1597      1599      1591      1594      1597      1600
      1592      1591      1594      1595      1592      1591      1594      1596
      1592      1591      1594      1597      1593      1591      1594      1595
      1593      1591      1594      1596      1593      1591      1594      1597
      1594      1597      1600      1601      1594      1597      1600      1602
      1594      1597      1600      1603      1595      1594      1597      1598
      1595      1594      1597      1599      1595      1594      1597      1600
      1596      1594      1597      1598      1596      1594      1597      1599
      1596      1594      1597      1600      1597      1600      1603      1604
      1597      1600      1603      1605      1597      1600      1603      1606
      1598      1597      1600      1601      1598      1597      1600      1602
      1598      1597      1600      1603      1599      1597      1600      1601
      1599      1597      1600      1602      1599      1597      1600      1603
      1600      1603      1606      1607      1600      1603      1606      1608
      1600      1603      1606      1609      1601      1600      1603      1604
      1601      1600      1603      1605      1601      1600      1603      1606
      1602      1600      1603      1604      1602      1600      1603      1605
      1602      1600      1603      1606      1604      1603      1606      1607
      1604      1603      1606      1608      1604      1603      1606      1609
      1605      1603      1606      1607      1605      1603      1606      1608
      1605      1603      1606      1609      1610      1613      1616      1617
      1610      1613      1616      1618      1610      1613      1616      1619
      1611      1610      1613      1614      1611      1610      1613      1615
      1611      1610      1613      1616      1612      1610      1613      1614
      1612      1610      1613      1615      1612      1610      1613      1616
      1613      1616      1619      1620      1613      1616      1619      1621
      1613      1616      1619      1622      1614      1613      1616      1617
      1614      1613      1616      1618      1614      1613      1616      1619
      1615      1613      1616      1617      1615      1613      1616      1618
      1615      1613      1616      1619      1616      1619      1622      1623
      1616      1619      1622      1624      1616      1619      1622      1625
      1617      1616      1619      1620      1617      1616      1619      1621
      1617      1616      1619      1622      1618      1616      1619      1620
      1618      1616      1619      1621      1618      1616      1619      1622
      1619      1622      1625      1626      1619      1622      1625      1627
      1619      1622      1625      1628      1620      1619      1622      1623
      1620      1619      1622      1624      1620      1619      1622      1625
      1621      1619      1622      1623      1621      1619      1622      1624
      1621      1619      1622      1625      1622      1625      1628      1629
      1622      1625      1628      1630      1623      1622      1625      1626
      1623      1622      1625      1627      1623      1622      1625      1628
      1624      1622      1625      1626      1624      1622      1625      1627
      1624      1622      1625      1628      1625      1628      1630      1631
      1625      1628      1630      1632      1626      1625      1628      1629
      1626      1625      1628      1630      1627      1625      1628      1629
      1627      1625      1628      1630      1628      1630      1632      1633
      1628      1630      1632      1634      1628      1630      1632      1635
      1629      1628      1630      1631      1629      1628      1630      1632
      1630      1632      1635      1636      1630      1632      1635      1637
      1630      1632      1635      1638      1631      1630      1632      1633
      1631      1630      1632      1634      1631      1630      1632      1635
      1632      1635      1638      1639      1632      1635      1638      1640
      1632      1635      1638      1641      1633      1632      1635      1636
      1633      1632      1635      1637      1633      1632      1635      1638
      1634      1632      1635      1636      1634      1632      1635      1637
      1634      1632      1635      1638      1635      1638      1641      1642
      1635      1638      1641      1643      1635      1638      1641      1644
      1636      1635      1638      1639      1636      1635      1638      1640
      1636      1635      1638      1641      1637      1635      1638      1639
      1637      1635      1638      1640      1637      1635      1638      1641
      1638      1641      1644      1645      1638      1641      1644      1646
      1638      1641      1644      1647      1639      1638      1641      1642
      1639      1638      1641      1643      1639      1638      1641      1644
      1640      1638      1641      1642      1640      1638      1641      1643
      1640      1638      1641      1644      1641      1644      1647      1648
      1641      1644      1647      1649      1641      1644      1647      1650
      1642      1641      1644      1645      1642      1641      1644      1646
      1642      1641      1644      1647      1643      1641      1644      1645
      1643      1641      1644      1646      1643      1641      1644      1647
      1644      1647      1650      1651      1644      1647      1650      1652
      1644      1647      1650      1653      1645      1644      1647      1648
      1645      1644      1647      1649      1645      1644      1647      1650
      1646      1644      1647      1648      1646      1644      1647      1649
      1646      1644      1647      1650      1647      1650      1653      1654
      1647      1650      1653      1655      1647      1650      1653      1656
      1648      1647      1650      1651      1648      1647      1650      1652
      1648      1647      1650      1653      1649      1647      1650      1651
      1649      1647      1650      1652      1649      1647      1650      1653
      1651      1650      1653      1654      1651      1650      1653      1655
      1651      1650      1653      1656      1652      1650      1653      1654
      1652      1650      1653      1655      1652      1650      1653      1656
      1657      1658      1673      1674      1657      1658      1673      1675
      1657      1658      1673      1679      1658      1657      1661      1662
      1658      1657      1661      1663      1658      1657      1661      1664
      1658      1657      1665      1666      1658      1657      1665      1667
      1658      1657      1665      1668      1658      1657      1669      1670
      1658      1657      1669      1671      1658      1657      1669      1672
      1658      1673      1679      1676      1659      1658      1657      1661
      1659      1658      1657      1665      1659      1658      1657      1669
      1659      1658      1673      1674      1659      1658      1673      1675
      1659      1658      1673      1679      1660      1658      1657      1661
      1660      1658      1657      1665      1660      1658      1657      1669
      1660      1658      1673      1674      1660      1658      1673      1675
      1660      1658      1673      1679      1661      1657      1658      1673
      1661      1657      1665      1666      1661      1657      1665      1667
      1661      1657      1665      1668      1661      1657      1669      1670
      1661      1657      1669      1671      1661      1657      1669      1672
      1662      1661      1657      1665      1662      1661      1657      1669
      1663      1661      1657      1665      1663      1661      1657      1669
      1664      1661      1657      1665      1664      1661      1657      1669
      1665      1657      1658      1673      1665      1657      1669      1670
      1665      1657      1669      1671      1665      1657      1669      1672
      1666      1665      1657      1669      1667      1665      1657      1669
      1668      1665      1657      1669      1669      1657      1658      1673
      1673      1679      1676      1677      1673      1679      1676      1678
      1673      1679      1676      1680      1674      1673      1679      1676
      1675      1673      1679      1676      1676      1680      1681      1682
      1676      1680      1681      1683      1676      1680      1681      1684
      1677      1676      1680      1681      1678      1676      1680      1681
      1679      1676      1680      1681      1680      1681      1684      1685
      1680      1681      1684      1686      1680      1681      1684      1692
      1681      1684      1686      1687      1681      1684      1692      1693
      1681      1684      1692      1694      1681      1684      1692      1695
      1682      1681      1684      1685      1682      1681      1684      1686
      1682      1681      1684      1692      1683      1681      1684      1685
      1683      1681      1684      1686      1683      1681      1684      1692
      1684      1686      1687      1688      1684      1686      1687      1689
      1684      1692      1695      1696      1685      1684      1686      1687
      1685      1684      1692      1693      1685      1684      1692      1694
      1685      1684      1692      1695      1686      1684      1692      1693
      1686      1684      1692      1694      1686      1684      1692      1695
      1686      1687      1689      1690      1686      1687      1689      1691
      1686      1687      1689      1701      1687      1686      1684      1692
      1687      1689      1701      1702      1687      1689      1701      1703
      1687      1689      1701      1704      1688      1687      1689      1690
      1688      1687      1689      1691      1688      1687      1689      1701
      1689      1701      1704      1705      1689      1701      1704      1706
      1689      1701      1704      1707      1690      1689      1701      1702
      1690      1689      1701      1703      1690      1689      1701      1704
      1691      1689      1701      1702      1691      1689      1701      1703
      1691      1689      1701      1704      1692      1695      1696      1697
      1692      1695      1696      1698      1693      1692      1695      1696
      1694      1692      1695      1696      1695      1696      1698      1699
      1695      1696      1698      1700      1695      1696      1698      1748
      1696      1698      1748      1749      1696      1698      1748      1750
      1696      1698      1748      1751      1697      1696      1698      1699
      1697      1696      1698      1700      1697      1696      1698      1748
      1698      1748      1751      1752      1698      1748      1751      1753
      1698      1748      1751      1754      1699      1698      1748      1749
      1699      1698      1748      1750      1699      1698      1748      1751
      1700      1698      1748      1749      1700      1698      1748      1750
      1700      1698      1748      1751      1701      1704      1707      1708
      1701      1704      1707      1709      1701      1704      1707      1710
      1702      1701      1704      1705      1702      1701      1704      1706
      1702      1701      1704      1707      1703      1701      1704      1705
      1703      1701      1704      1706      1703      1701      1704      1707
      1704      1707      1710      1711      1704      1707      1710      1712
      1704      1707      1710      1713      1705      1704      1707      1708
      1705      1704      1707      1709      1705      1704      1707      1710
      1706      1704      1707      1708      1706      1704      1707      1709
      1706      1704      1707      1710      1707      1710      1713      1714
      1707      1710      1713      1715      1707      1710      1713      1716
      1708      1707      1710      1711      1708      1707      1710      1712
      1708      1707      1710      1713      1709      1707      1710      1711
      1709      1707      1710      1712      1709      1707      1710      1713
      1710      1713      1716      1717      1710      1713      1716      1718
      1710      1713      1716      1719      1711      1710      1713      1714
      1711      1710      1713      1715      1711      1710      1713      1716
      1712      1710      1713      1714      1712      1710      1713      1715
      1712      1710      1713      1716      1713      1716      1719      1720
      1713      1716      1719      1721      1714      1713      1716      1717
      1714      1713      1716      1718      1714      1713      1716      1719
      1715      1713      1716      1717      1715      1713      1716      1718
      1715      1713      1716      1719      1716      1719      1721      1722
      1716      1719      1721      1723      1717      1716      1719      1720
      1717      1716      1719      1721      1718      1716      1719      1720
      1718      1716      1719      1721      1719      1721      1723      1724
      1719      1721      1723      1725      1719      1721      1723      1726
      1720      1719      1721      1722      1720      1719      1721      1723
      1721      1723      1726      1727      1721      1723      1726      1728
      1721      1723      1726      1729      1722      1721      1723      1724
      1722      1721      1723      1725      1722      1721      1723      1726
      1723      1726      1729      1730      1723      1726      1729      1731
      1723      1726      1729      1732      1724      1723      1726      1727
      1724      1723      1726      1728      1724      1723      1726      1729
      1725      1723      1726      1727      1725      1723      1726      1728
      1725      1723      1726      1729      1726      1729      1732      1733
      1726      1729      1732      1734      1726      1729      1732      1735
      1727      1726      1729      1730      1727      1726      1729      1731
      1727      1726      1729      1732      1728      1726      1729      1730
      1728      1726      1729      1731      1728      1726      1729      1732
      1729      1732      1735      1736      1729      1732      1735      1737
      1729      1732      1735      1738      1730      1729      1732      1733
      1730      1729      1732      1734      1730      1729      1732      1735
      1731      1729      1732      1733      1731      1729      1732      1734
      1731      1729      1732      1735      1732      1735      1738      1739
      1732      1735      1738      1740      1732      1735      1738      1741
      1733      1732      1735      1736      1733      1732      1735      1737
      1733      1732      1735      1738      1734      1732      1735      1736
      1734      1732      1735      1737      1734      1732      1735      1738
      1735      1738      1741      1742      1735      1738      1741      1743
      1735      1738      1741      1744      1736      1735      1738      1739
      1736      1735      1738      1740      1736      1735      1738      1741
      1737      1735      1738      1739      1737      1735      1738      1740
      1737      1735      1738      1741      1738      1741      1744      1745
      1738      1741      1744      1746      1738      1741      1744      1747
      1739      1738      1741      1742      1739      1738      1741      1743
      1739      1738      1741      1744      1740      1738      1741      1742
      1740      1738      1741      1743      1740      1738      1741      1744
      1742      1741      1744      1745      1742      1741      1744      1746
      1742      1741      1744      1747      1743      1741      1744      1745
      1743      1741      1744      1746      1743      1741      1744      1747
      1748      1751      1754      1755      1748      1751      1754      1756
      1748      1751      1754      1757      1749      1748      1751      1752
      1749      1748      1751      1753      1749      1748      1751      1754
      1750      1748      1751      1752      1750      1748      1751      1753
      1750      1748      1751      1754      1751      1754      1757      1758
      1751      1754      1757      1759      1751      1754      1757      1760
      1752      1751      1754      1755      1752      1751      1754      1756
      1752      1751      1754      1757      1753      1751      1754      1755
      1753      1751      1754      1756      1753      1751      1754      1757
      1754      1757      1760      1761      1754      1757      1760      1762
      1754      1757      1760      1763      1755      1754      1757      1758
      1755      1754      1757      1759      1755      1754      1757      1760
      1756      1754      1757      1758      1756      1754      1757      1759
      1756      1754      1757      1760      1757      1760      1763      1764
      1757      1760      1763      1765      1757      1760      1763      1766
      1758      1757      1760      1761      1758      1757      1760      1762
      1758      1757      1760      1763      1759      1757      1760      1761
      1759      1757      1760      1762      1759      1757      1760      1763
      1760      1763      1766      1767      1760      1763      1766      1768
      1761      1760      1763      1764      1761      1760      1763      1765
      1761      1760      1763      1766      1762      1760      1763      1764
      1762      1760      1763      1765      1762      1760      1763      1766
      1763      1766      1768      1769      1763      1766      1768      1770
      1764      1763      1766      1767      1764      1763      1766      1768
      1765      1763      1766      1767      1765      1763      1766      1768
      1766      1768      1770      1771      1766      1768      1770      1772
      1766      1768      1770      1773      1767      1766      1768      1769
      1767      1766      1768      1770      1768      1770      1773      1774
      1768      1770      1773      1775      1768      1770      1773      1776
      1769      1768      1770      1771      1769      1768      1770      1772
      1769      1768      1770      1773      1770      1773      1776      1777
      1770      1773      1776      1778      1770      1773      1776      1779
      1771      1770      1773      1774      1771      1770      1773      1775
      1771      1770      1773      1776      1772      1770      1773      1774
      1772      1770      1773      1775      1772      1770      1773      1776
      1773      1776      1779      1780      1773      1776      1779      1781
      1773      1776      1779      1782      1774      1773      1776      1777
      1774      1773      1776      1778      1774      1773      1776      1779
      1775      1773      1776      1777      1775      1773      1776      1778
      1775      1773      1776      1779      1776      1779      1782      1783
      1776      1779      1782      1784      1776      1779      1782      1785
      1777      1776      1779      1780      1777      1776      1779      1781
      1777      1776      1779      1782      1778      1776      1779      1780
      1778      1776      1779      1781      1778      1776      1779      1782
      1779      1782      1785      1786      1779      1782      1785      1787
      1779      1782      1785      1788      1780      1779      1782      1783
      1780      1779      1782      1784      1780      1779      1782      1785
      1781      1779      1782      1783      1781      1779      1782      1784
      1781      1779      1782      1785      1782      1785      1788      1789
      1782      1785      1788      1790      1782      1785      1788      1791
      1783      1782      1785      1786      1783      1782      1785      1787
      1783      1782      1785      1788      1784      1782      1785      1786
      1784      1782      1785      1787      1784      1782      1785      1788
      1785      1788      1791      1792      1785      1788      1791      1793
      1785      1788      1791      1794      1786      1785      1788      1789
      1786      1785      1788      1790      1786      1785      1788      1791
      1787      1785      1788      1789      1787      1785      1788      1790
      1787      1785      1788      1791      1789      1788      1791      1792
      1789      1788      1791      1793      1789      1788      1791      1794
      1790      1788      1791      1792      1790      1788      1791      1793
      1790      1788      1791      1794      1795      1796      1811      1812
      1795      1796      1811      1813      1795      1796      1811      1817
      1796      1795      1799      1800      1796      1795      1799      1801
      1796      1795      1799      1802      1796      1795      1803      1804
      1796      1795      1803      1805      1796      1795      1803      1806
      1796      1795      1807      1808      1796      1795      1807      1809
      1796      1795      1807      1810      1796      1811      1817      1814
      1797      1796      1795      1799      1797      1796      1795      1803
      1797      1796      1795      1807      1797      1796      1811      1812
      1797      1796      1811      1813      1797      1796      1811      1817
      1798      1796      1795      1799      1798      1796      1795      1803
      1798      1796      1795      1807      1798      1796      1811      1812
      1798      1796      1811      1813      1798      1796      1811      1817
      1799      1795      1796      1811      1799      1795      1803      1804
      1799      1795      1803      1805      1799      1795      1803      1806
      1799      1795      1807      1808      1799      1795      1807      1809
      1799      1795      1807      1810      1800      1799      1795      1803
      1800      1799      1795      1807      1801      1799      1795      1803
      1801      1799      1795      1807      1802      1799      1795      1803
      1802      1799      1795      1807      1803      1795      1796      1811
      1803      1795      1807      1808      1803      1795      1807      1809
      1803      1795      1807      1810      1804      1803      1795      1807
      1805      1803      1795      1807      1806      1803      1795      1807
      1807      1795      1796      1811      1811      1817      1814      1815
      1811      1817      1814      1816      1811      1817      1814      1818
      1812      1811      1817      1814      1813      1811      1817      1814
      1814      1818      1819      1820      1814      1818      1819      1821
      1814      1818      1819      1822      1815      1814      1818      1819
      1816      1814      1818      1819      1817      1814      1818      1819
      1818      1819      1822      1823      1818      1819      1822      1824
      1818      1819      1822      1830      1819      1822      1824      1825
      1819      1822      1830      1831      1819      1822      1830      1832
      1819      1822      1830      1833      1820      1819      1822      1823
      1820      1819      1822      1824      1820      1819      1822      1830
      1821      1819      1822      1823      1821      1819      1822      1824
      1821      1819      1822      1830      1822      1824      1825      1826
      1822      1824      1825      1827      1822      1830      1833      1834
      1823      1822      1824      1825      1823      1822      1830      1831
      1823      1822      1830      1832      1823      1822      1830      1833
      1824      1822      1830      1831      1824      1822      1830      1832
      1824      1822      1830      1833      1824      1825      1827      1828
      1824      1825      1827      1829      1824      1825      1827      1839
      1825      1824      1822      1830      1825      1827      1839      1840
      1825      1827      1839      1841      1825      1827      1839      1842
      1826      1825      1827      1828      1826      1825      1827      1829
      1826      1825      1827      1839      1827      1839      1842      1843
      1827      1839      1842      1844      1827      1839      1842      1845
      1828      1827      1839      1840      1828      1827      1839      1841
      1828      1827      1839      1842      1829      1827      1839      1840
      1829      1827      1839      1841      1829      1827      1839      1842
      1830      1833      1834      1835      1830      1833      1834      1836
      1831      1830      1833      1834      1832      1830      1833      1834
      1833      1834      1836      1837      1833      1834      1836      1838
      1833      1834      1836      1886      1834      1836      1886      1887
      1834      1836      1886      1888      1834      1836      1886      1889
      1835      1834      1836      1837      1835      1834      1836      1838
      1835      1834      1836      1886      1836      1886      1889      1890
      1836      1886      1889      1891      1836      1886      1889      1892
      1837      1836      1886      1887      1837      1836      1886      1888
      1837      1836      1886      1889      1838      1836      1886      1887
      1838      1836      1886      1888      1838      1836      1886      1889
      1839      1842      1845      1846      1839      1842      1845      1847
      1839      1842      1845      1848      1840      1839      1842      1843
      1840      1839      1842      1844      1840      1839      1842      1845
      1841      1839      1842      1843      1841      1839      1842      1844
      1841      1839      1842      1845      1842      1845      1848      1849
      1842      1845      1848      1850      1842      1845      1848      1851
      1843      1842      1845      1846      1843      1842      1845      1847
      1843      1842      1845      1848      1844      1842      1845      1846
      1844      1842      1845      1847      1844      1842      1845      1848
      1845      1848      1851      1852      1845      1848      1851      1853
      1845      1848      1851      1854      1846      1845      1848      1849
      1846      1845      1848      1850      1846      1845      1848      1851
      1847      1845      1848      1849      1847      1845      1848      1850
      1847      1845      1848      1851      1848      1851      1854      1855
      1848      1851      1854      1856      1848      1851      1854      1857
      1849      1848      1851      1852      1849      1848      1851      1853
      1849      1848      1851      1854      1850      1848      1851      1852
      1850      1848      1851      1853      1850      1848      1851      1854
      1851      1854      1857      1858      1851      1854      1857      1859
      1852      1851      1854      1855      1852      1851      1854      1856
      1852      1851      1854      1857      1853      1851      1854      1855
      1853      1851      1854      1856      1853      1851      1854      1857
      1854      1857      1859      1860      1854      1857      1859      1861
      1855      1854      1857      1858      1855      1854      1857      1859
      1856      1854      1857      1858      1856      1854      1857      1859
      1857      1859      1861      1862      1857      1859      1861      1863
      1857      1859      1861      1864      1858      1857      1859      1860
      1858      1857      1859      1861      1859      1861      1864      1865
      1859      1861      1864      1866      1859      1861      1864      1867
      1860      1859      1861      1862      1860      1859      1861      1863
      1860      1859      1861      1864      1861      1864      1867      1868
      1861      1864      1867      1869      1861      1864      1867      1870
      1862      1861      1864      1865      1862      1861      1864      1866
      1862      1861      1864      1867      1863      1861      1864      1865
      1863      1861      1864      1866      1863      1861      1864      1867
      1864      1867      1870      1871      1864      1867      1870      1872
      1864      1867      1870      1873      1865      1864      1867      1868
      1865      1864      1867      1869      1865      1864      1867      1870
      1866      1864      1867      1868      1866      1864      1867      1869
      1866      1864      1867      1870      1867      1870      1873      1874
      1867      1870      1873      1875      1867      1870      1873      1876
      1868      1867      1870      1871      1868      1867      1870      1872
      1868      1867      1870      1873      1869      1867      1870      1871
      1869      1867      1870      1872      1869      1867      1870      1873
      1870      1873      1876      1877      1870      1873      1876      1878
      1870      1873      1876      1879      1871      1870      1873      1874
      1871      1870      1873      1875      1871      1870      1873      1876
      1872      1870      1873      1874      1872      1870      1873      1875
      1872      1870      1873      1876      1873      1876      1879      1880
      1873      1876      1879      1881      1873      1876      1879      1882
      1874      1873      1876      1877      1874      1873      1876      1878
      1874      1873      1876      1879      1875      1873      1876      1877
      1875      1873      1876      1878      1875      1873      1876      1879
      1876      1879      1882      1883      1876      1879      1882      1884
      1876      1879      1882      1885      1877      1876      1879      1880
      1877      1876      1879      1881      1877      1876      1879      1882
      1878      1876      1879      1880      1878      1876      1879      1881
      1878      1876      1879      1882      1880      1879      1882      1883
      1880      1879      1882      1884      1880      1879      1882      1885
      1881      1879      1882      1883      1881      1879      1882      1884
      1881      1879      1882      1885      1886      1889      1892      1893
      1886      1889      1892      1894      1886      1889      1892      1895
      1887      1886      1889      1890      1887      1886      1889      1891
      1887      1886      1889      1892      1888      1886      1889      1890
      1888      1886      1889      1891      1888      1886      1889      1892
      1889      1892      1895      1896      1889      1892      1895      1897
      1889      1892      1895      1898      1890      1889      1892      1893
      1890      1889      1892      1894      1890      1889      1892      1895
      1891      1889      1892      1893      1891      1889      1892      1894
      1891      1889      1892      1895      1892      1895      1898      1899
      1892      1895      1898      1900      1892      1895      1898      1901
      1893      1892      1895      1896      1893      1892      1895      1897
      1893      1892      1895      1898      1894      1892      1895      1896
      1894      1892      1895      1897      1894      1892      1895      1898
      1895      1898      1901      1902      1895      1898      1901      1903
      1895      1898      1901      1904      1896      1895      1898      1899
      1896      1895      1898      1900      1896      1895      1898      1901
      1897      1895      1898      1899      1897      1895      1898      1900
      1897      1895      1898      1901      1898      1901      1904      1905
      1898      1901      1904      1906      1899      1898      1901      1902
      1899      1898      1901      1903      1899      1898      1901      1904
      1900      1898      1901      1902      1900      1898      1901      1903
      1900      1898      1901      1904      1901      1904      1906      1907
      1901      1904      1906      1908      1902      1901      1904      1905
      1902      1901      1904      1906      1903      1901      1904      1905
      1903      1901      1904      1906      1904      1906      1908      1909
      1904      1906      1908      1910      1904      1906      1908      1911
      1905      1904      1906      1907      1905      1904      1906      1908
      1906      1908      1911      1912      1906      1908      1911      1913
      1906      1908      1911      1914      1907      1906      1908      1909
      1907      1906      1908      1910      1907      1906      1908      1911
      1908      1911      1914      1915      1908      1911      1914      1916
      1908      1911      1914      1917      1909      1908      1911      1912
      1909      1908      1911      1913      1909      1908      1911      1914
      1910      1908      1911      1912      1910      1908      1911      1913
      1910      1908      1911      1914      1911      1914      1917      1918
      1911      1914      1917      1919      1911      1914      1917      1920
      1912      1911      1914      1915      1912      1911      1914      1916
      1912      1911      1914      1917      1913      1911      1914      1915
      1913      1911      1914      1916      1913      1911      1914      1917
      1914      1917      1920      1921      1914      1917      1920      1922
      1914      1917      1920      1923      1915      1914      1917      1918
      1915      1914      1917      1919      1915      1914      1917      1920
      1916      1914      1917      1918      1916      1914      1917      1919
      1916      1914      1917      1920      1917      1920      1923      1924
      1917      1920      1923      1925      1917      1920      1923      1926
      1918      1917      1920      1921      1918      1917      1920      1922
      1918      1917      1920      1923      1919      1917      1920      1921
      1919      1917      1920      1922      1919      1917      1920      1923
      1920      1923      1926      1927      1920      1923      1926      1928
      1920      1923      1926      1929      1921      1920      1923      1924
      1921      1920      1923      1925      1921      1920      1923      1926
      1922      1920      1923      1924      1922      1920      1923      1925
      1922      1920      1923      1926      1923      1926      1929      1930
      1923      1926      1929      1931      1923      1926      1929      1932
      1924      1923      1926      1927      1924      1923      1926      1928
      1924      1923      1926      1929      1925      1923      1926      1927
      1925      1923      1926      1928      1925      1923      1926      1929
      1927      1926      1929      1930      1927      1926      1929      1931
      1927      1926      1929      1932      1928      1926      1929      1930
      1928      1926      1929      1931      1928      1926      1929      1932
      1933      1934      1949      1950      1933      1934      1949      1951
      1933      1934      1949      1955      1934      1933      1937      1938
      1934      1933      1937      1939      1934      1933      1937      1940
      1934      1933      1941      1942      1934      1933      1941      1943
      1934      1933      1941      1944      1934      1933      1945      1946
      1934      1933      1945      1947      1934      1933      1945      1948
      1934      1949      1955      1952      1935      1934      1933      1937
      1935      1934      1933      1941      1935      1934      1933      1945
      1935      1934      1949      1950      1935      1934      1949      1951
      1935      1934      1949      1955      1936      1934      1933      1937
      1936      1934      1933      1941      1936      1934      1933      1945
      1936      1934      1949      1950      1936      1934      1949      1951
      1936      1934      1949      1955      1937      1933      1934      1949
      1937      1933      1941      1942      1937      1933      1941      1943
      1937      1933      1941      1944      1937      1933      1945      1946
      1937      1933      1945      1947      1937      1933      1945      1948
      1938      1937      1933      1941      1938      1937      1933      1945
      1939      1937      1933      1941      1939      1937      1933      1945
      1940      1937      1933      1941      1940      1937      1933      1945
      1941      1933      1934      1949      1941      1933      1945      1946
      1941      1933      1945      1947      1941      1933      1945      1948
      1942      1941      1933      1945      1943      1941      1933      1945
      1944      1941      1933      1945      1945      1933      1934      1949
      1949      1955      1952      1953      1949      1955      1952      1954
      1949      1955      1952      1956      1950      1949      1955      1952
      1951      1949      1955      1952      1952      1956      1957      1958
      1952      1956      1957      1959      1952      1956      1957      1960
      1953      1952      1956      1957      1954      1952      1956      1957
      1955      1952      1956      1957      1956      1957      1960      1961
      1956      1957      1960      1962      1956      1957      1960      1968
      1957      1960      1962      1963      1957      1960      1968      1969
      1957      1960      1968      1970      1957      1960      1968      1971
      1958      1957      1960      1961      1958      1957      1960      1962
      1958      1957      1960      1968      1959      1957      1960      1961
      1959      1957      1960      1962      1959      1957      1960      1968
      1960      1962      1963      1964      1960      1962      1963      1965
      1960      1968      1971      1972      1961      1960      1962      1963
      1961      1960      1968      1969      1961      1960      1968      1970
      1961      1960      1968      1971      1962      1960      1968      1969
      1962      1960      1968      1970      1962      1960      1968      1971
      1962      1963      1965      1966      1962      1963      1965      1967
      1962      1963      1965      1977      1963      1962      1960      1968
      1963      1965      1977      1978      1963      1965      1977      1979
      1963      1965      1977      1980      1964      1963      1965      1966
      1964      1963      1965      1967      1964      1963      1965      1977
      1965      1977      1980      1981      1965      1977      1980      1982
      1965      1977      1980      1983      1966      1965      1977      1978
      1966      1965      1977      1979      1966      1965      1977      1980
      1967      1965      1977      1978      1967      1965      1977      1979
      1967      1965      1977      1980      1968      1971      1972      1973
      1968      1971      1972      1974      1969      1968      1971      1972
      1970      1968      1971      1972      1971      1972      1974      1975
      1971      1972      1974      1976      1971      1972      1974      2024
      1972      1974      2024      2025      1972      1974      2024      2026
      1972      1974      2024      2027      1973      1972      1974      1975
      1973      1972      1974      1976      1973      1972      1974      2024
      1974      2024      2027      2028      1974      2024      2027      2029
      1974      2024      2027      2030      1975      1974      2024      2025
      1975      1974      2024      2026      1975      1974      2024      2027
      1976      1974      2024      2025      1976      1974      2024      2026
      1976      1974      2024      2027      1977      1980      1983      1984
      1977      1980      1983      1985      1977      1980      1983      1986
      1978      1977      1980      1981      1978      1977      1980      1982
      1978      1977      1980      1983      1979      1977      1980      1981
      1979      1977      1980      1982      1979      1977      1980      1983
      1980      1983      1986      1987      1980      1983      1986      1988
      1980      1983      1986      1989      1981      1980      1983      1984
      1981      1980      1983      1985      1981      1980      1983      1986
      1982      1980      1983      1984      1982      1980      1983      1985
      1982      1980      1983      1986      1983      1986      1989      1990
      1983      1986      1989      1991      1983      1986      1989      1992
      1984      1983      1986      1987      1984      1983      1986      1988
      1984      1983      1986      1989      1985      1983      1986      1987
      1985      1983      1986      1988      1985      1983      1986      1989
      1986      1989      1992      1993      1986      1989      1992      1994
      1986      1989      1992      1995      1987      1986      1989      1990
      1987      1986      1989      1991      1987      1986      1989      1992
      1988      1986      1989      1990      1988      1986      1989      1991
      1988      1986      1989      1992      1989      1992      1995      1996
      1989      1992      1995      1997      1990      1989      1992      1993
      1990      1989      1992      1994      1990      1989      1992      1995
      1991      1989      1992      1993      1991      1989      1992      1994
      1991      1989      1992      1995      1992      1995      1997      1998
      1992      1995      1997      1999      1993      1992      1995      1996
      1993      1992      1995      1997      1994      1992      1995      1996
      1994      1992      1995      1997      1995      1997      1999      2000
      1995      1997      1999      2001      1995      1997      1999      2002
      1996      1995      1997      1998      1996      1995      1997      1999
      1997      1999      2002      2003      1997      1999      2002      2004
      1997      1999      2002      2005      1998      1997      1999      2000
      1998      1997      1999      2001      1998      1997      1999      2002
      1999      2002      2005      2006      1999      2002      2005      2007
      1999      2002      2005      2008      2000      1999      2002      2003
      2000      1999      2002      2004      2000      1999      2002      2005
      2001      1999      2002      2003      2001      1999      2002      2004
      2001      1999      2002      2005      2002      2005      2008      2009
      2002      2005      2008      2010      2002      2005      2008      2011
      2003      2002      2005      2006      2003      2002      2005      2007
      2003      2002      2005      2008      2004      2002      2005      2006
      2004      2002      2005      2007      2004      2002      2005      2008
      2005      2008      2011      2012      2005      2008      2011      2013
      2005      2008      2011      2014      2006      2005      2008      2009
      2006      2005      2008      2010      2006      2005      2008      2011
      2007      2005      2008      2009      2007      2005      2008      2010
      2007      2005      2008      2011      2008      2011      2014      2015
      2008      2011      2014      2016      2008      2011      2014      2017
      2009      2008      2011      2012      2009      2008      2011      2013
      2009      2008      2011      2014      2010      2008      2011      2012
      2010      2008      2011      2013      2010      2008      2011      2014
      2011      2014      2017      2018      2011      2014      2017      2019
      2011      2014      2017      2020      2012      2011      2014      2015
      2012      2011      2014      2016      2012      2011      2014      2017
      2013      2011      2014      2015      2013      2011      2014      2016
      2013      2011      2014      2017      2014      2017      2020      2021
      2014      2017      2020      2022      2014      2017      2020      2023
      2015      2014      2017      2018      2015      2014      2017      2019
      2015      2014      2017      2020      2016      2014      2017      2018
      2016      2014      2017      2019      2016      2014      2017      2020
      2018      2017      2020      2021      2018      2017      2020      2022
      2018      2017      2020      2023      2019      2017      2020      2021
      2019      2017      2020      2022      2019      2017      2020      2023
      2024      2027      2030      2031      2024      2027      2030      2032
      2024      2027      2030      2033      2025      2024      2027      2028
      2025      2024      2027      2029      2025      2024      2027      2030
      2026      2024      2027      2028      2026      2024      2027      2029
      2026      2024      2027      2030      2027      2030      2033      2034
      2027      2030      2033      2035      2027      2030      2033      2036
      2028      2027      2030      2031      2028      2027      2030      2032
      2028      2027      2030      2033      2029      2027      2030      2031
      2029      2027      2030      2032      2029      2027      2030      2033
      2030      2033      2036      2037      2030      2033      2036      2038
      2030      2033      2036      2039      2031      2030      2033      2034
      2031      2030      2033      2035      2031      2030      2033      2036
      2032      2030      2033      2034      2032      2030      2033      2035
      2032      2030      2033      2036      2033      2036      2039      2040
      2033      2036      2039      2041      2033      2036      2039      2042
      2034      2033      2036      2037      2034      2033      2036      2038
      2034      2033      2036      2039      2035      2033      2036      2037
      2035      2033      2036      2038      2035      2033      2036      2039
      2036      2039      2042      2043      2036      2039      2042      2044
      2037      2036      2039      2040      2037      2036      2039      2041
      2037      2036      2039      2042      2038      2036      2039      2040
      2038      2036      2039      2041      2038      2036      2039      2042
      2039      2042      2044      2045      2039      2042      2044      2046
      2040      2039      2042      2043      2040      2039      2042      2044
      2041      2039      2042      2043      2041      2039      2042      2044
      2042      2044      2046      2047      2042      2044      2046      2048
      2042      2044      2046      2049      2043      2042      2044      2045
      2043      2042      2044      2046      2044      2046      2049      2050
      2044      2046      2049      2051      2044      2046      2049      2052
      2045      2044      2046      2047      2045      2044      2046      2048
      2045      2044      2046      2049      2046      2049      2052      2053
      2046      2049      2052      2054      2046      2049      2052      2055
      2047      2046      2049      2050      2047      2046      2049      2051
      2047      2046      2049      2052      2048      2046      2049      2050
      2048      2046      2049      2051      2048      2046      2049      2052
      2049      2052      2055      2056      2049      2052      2055      2057
      2049      2052      2055      2058      2050      2049      2052      2053
      2050      2049      2052      2054      2050      2049      2052      2055
      2051      2049      2052      2053      2051      2049      2052      2054
      2051      2049      2052      2055      2052      2055      2058      2059
      2052      2055      2058      2060      2052      2055      2058      2061
      2053      2052      2055      2056      2053      2052      2055      2057
      2053      2052      2055      2058      2054      2052      2055      2056
      2054      2052      2055      2057      2054      2052      2055      2058
      2055      2058      2061      2062      2055      2058      2061      2063
      2055      2058      2061      2064      2056      2055      2058      2059
      2056      2055      2058      2060      2056      2055      2058      2061
      2057      2055      2058      2059      2057      2055      2058      2060
      2057      2055      2058      2061      2058      2061      2064      2065
      2058      2061      2064      2066      2058      2061      2064      2067
      2059      2058      2061      2062      2059      2058      2061      2063
      2059      2058      2061      2064      2060      2058      2061      2062
      2060      2058      2061      2063      2060      2058      2061      2064
      2061      2064      2067      2068      2061      2064      2067      2069
      2061      2064      2067      2070      2062      2061      2064      2065
      2062      2061      2064      2066      2062      2061      2064      2067
      2063      2061      2064      2065      2063      2061      2064      2066
      2063      2061      2064      2067      2065      2064      2067      2068
      2065      2064      2067      2069      2065      2064      2067      2070
      2066      2064      2067      2068      2066      2064      2067      2069
      2066      2064      2067      2070      2071      2072      2087      2088
      2071      2072      2087      2089      2071      2072      2087      2093
      2072      2071      2075      2076      2072      2071      2075      2077
      2072      2071      2075      2078      2072      2071      2079      2080
      2072      2071      2079      2081      2072      2071      2079      2082
      2072      2071      2083      2084      2072      2071      2083      2085
      2072      2071      2083      2086      2072      2087      2093      2090
      2073      2072      2071      2075      2073      2072      2071      2079
      2073      2072      2071      2083      2073      2072      2087      2088
      2073      2072      2087      2089      2073      2072      2087      2093
      2074      2072      2071      2075      2074      2072      2071      2079
      2074      2072      2071      2083      2074      2072      2087      2088
      2074      2072      2087      2089      2074      2072      2087      2093
      2075      2071      2072      2087      2075      2071      2079      2080
      2075      2071      2079      2081      2075      2071      2079      2082
      2075      2071      2083      2084      2075      2071      2083      2085
      2075      2071      2083      2086      2076      2075      2071      2079
      2076      2075      2071      2083      2077      2075      2071      2079
      2077      2075      2071      2083      2078      2075      2071      2079
      2078      2075      2071      2083      2079      2071      2072      2087
      2079      2071      2083      2084      2079      2071      2083      2085
      2079      2071      2083      2086      2080      2079      2071      2083
      2081      2079      2071      2083      2082      2079      2071      2083
      2083      2071      2072      2087      2087      2093      2090      2091
      2087      2093      2090      2092      2087      2093      2090      2094
      2088      2087      2093      2090      2089      2087      2093      2090
      2090      2094      2095      2096      2090      2094      2095      2097
      2090      2094      2095      2098      2091      2090      2094      2095
      2092      2090      2094      2095      2093      2090      2094      2095
      2094      2095      2098      2099      2094      2095      2098      2100
      2094      2095      2098      2106      2095      2098      2100      2101
      2095      2098      2106      2107      2095      2098      2106      2108
      2095      2098      2106      2109      2096      2095      2098      2099
      2096      2095      2098      2100      2096      2095      2098      2106
      2097      2095      2098      2099      2097      2095      2098      2100
      2097      2095      2098      2106      2098      2100      2101      2102
      2098      2100      2101      2103      2098      2106      2109      2110
      2099      2098      2100      2101      2099      2098      2106      2107
      2099      2098      2106      2108      2099      2098      2106      2109
      2100      2098      2106      2107      2100      2098      2106      2108
      2100      2098      2106      2109      2100      2101      2103      2104
      2100      2101      2103      2105      2100      2101      2103      2115
      2101      2100      2098      2106      2101      2103      2115      2116
      2101      2103      2115      2117      2101      2103      2115      2118
      2102      2101      2103      2104      2102      2101      2103      2105
      2102      2101      2103      2115      2103      2115      2118      2119
      2103      2115      2118      2120      2103      2115      2118      2121
      2104      2103      2115      2116      2104      2103      2115      2117
      2104      2103      2115      2118      2105      2103      2115      2116
      2105      2103      2115      2117      2105      2103      2115      2118
      2106      2109      2110      2111      2106      2109      2110      2112
      2107      2106      2109      2110      2108      2106      2109      2110
      2109      2110      2112      2113      2109      2110      2112      2114
      2109      2110      2112      2162      2110      2112      2162      2163
      2110      2112      2162      2164      2110      2112      2162      2165
      2111      2110      2112      2113      2111      2110      2112      2114
      2111      2110      2112      2162      2112      2162      2165      2166
      2112      2162      2165      2167      2112      2162      2165      2168
      2113      2112      2162      2163      2113      2112      2162      2164
      2113      2112      2162      2165      2114      2112      2162      2163
      2114      2112      2162      2164      2114      2112      2162      2165
      2115      2118      2121      2122      2115      2118      2121      2123
      2115      2118      2121      2124      2116      2115      2118      2119
      2116      2115      2118      2120      2116      2115      2118      2121
      2117      2115      2118      2119      2117      2115      2118      2120
      2117      2115      2118      2121      2118      2121      2124      2125
      2118      2121      2124      2126      2118      2121      2124      2127
      2119      2118      2121      2122      2119      2118      2121      2123
      2119      2118      2121      2124      2120      2118      2121      2122
      2120      2118      2121      2123      2120      2118      2121      2124
      2121      2124      2127      2128      2121      2124      2127      2129
      2121      2124      2127      2130      2122      2121      2124      2125
      2122      2121      2124      2126      2122      2121      2124      2127
      2123      2121      2124      2125      2123      2121      2124      2126
      2123      2121      2124      2127      2124      2127      2130      2131
      2124      2127      2130      2132      2124      2127      2130      2133
      2125      2124      2127      2128      2125      2124      2127      2129
      2125      2124      2127      2130      2126      2124      2127      2128
      2126      2124      2127      2129      2126      2124      2127      2130
      2127      2130      2133      2134      2127      2130      2133      2135
      2128      2127      2130      2131      2128      2127      2130      2132
      2128      2127      2130      2133      2129      2127      2130      2131
      2129      2127      2130      2132      2129      2127      2130      2133
      2130      2133      2135      2136      2130      2133      2135      2137
      2131      2130      2133      2134      2131      2130      2133      2135
      2132      2130      2133      2134      2132      2130      2133      2135
      2133      2135      2137      2138      2133      2135      2137      2139
      2133      2135      2137      2140      2134      2133      2135      2136
      2134      2133      2135      2137      2135      2137      2140      2141
      2135      2137      2140      2142      2135      2137      2140      2143
      2136      2135      2137      2138      2136      2135      2137      2139
      2136      2135      2137      2140      2137      2140      2143      2144
      2137      2140      2143      2145      2137      2140      2143      2146
      2138      2137      2140      2141      2138      2137      2140      2142
      2138      2137      2140      2143      2139      2137      2140      2141
      2139      2137      2140      2142      2139      2137      2140      2143
      2140      2143      2146      2147      2140      2143      2146      2148
      2140      2143      2146      2149      2141      2140      2143      2144
      2141      2140      2143      2145      2141      2140      2143      2146
      2142      2140      2143      2144      2142      2140      2143      2145
      2142      2140      2143      2146      2143      2146      2149      2150
      2143      2146      2149      2151      2143      2146      2149      2152
      2144      2143      2146      2147      2144      2143      2146      2148
      2144      2143      2146      2149      2145      2143      2146      2147
      2145      2143      2146      2148      2145      2143      2146      2149
      2146      2149      2152      2153      2146      2149      2152      2154
      2146      2149      2152      2155      2147      2146      2149      2150
      2147      2146      2149      2151      2147      2146      2149      2152
      2148      2146      2149      2150      2148      2146      2149      2151
      2148      2146      2149      2152      2149      2152      2155      2156
      2149      2152      2155      2157      2149      2152      2155      2158
      2150      2149      2152      2153      2150      2149      2152      2154
      2150      2149      2152      2155      2151      2149      2152      2153
      2151      2149      2152      2154      2151      2149      2152      2155
      2152      2155      2158      2159      2152      2155      2158      2160
      2152      2155      2158      2161      2153      2152      2155      2156
      2153      2152      2155      2157      2153      2152      2155      2158
      2154      2152      2155      2156      2154      2152      2155      2157
      2154      2152      2155      2158      2156      2155      2158      2159
      2156      2155      2158      2160      2156      2155      2158      2161
      2157      2155      2158      2159      2157      2155      2158      2160
      2157      2155      2158      2161      2162      2165      2168      2169
      2162      2165      2168      2170      2162      2165      2168      2171
      2163      2162      2165      2166      2163      2162      2165      2167
      2163      2162      2165      2168      2164      2162      2165      2166
      2164      2162      2165      2167      2164      2162      2165      2168
      2165      2168      2171      2172      2165      2168      2171      2173
      2165      2168      2171      2174      2166      2165      2168      2169
      2166      2165      2168      2170      2166      2165      2168      2171
      2167      2165      2168      2169      2167      2165      2168      2170
      2167      2165      2168      2171      2168      2171      2174      2175
      2168      2171      2174      2176      2168      2171      2174      2177
      2169      2168      2171      2172      2169      2168      2171      2173
      2169      2168      2171      2174      2170      2168      2171      2172
      2170      2168      2171      2173      2170      2168      2171      2174
      2171      2174      2177      2178      2171      2174      2177      2179
      2171      2174      2177      2180      2172      2171      2174      2175
      2172      2171      2174      2176      2172      2171      2174      2177
      2173      2171      2174      2175      2173      2171      2174      2176
      2173      2171      2174      2177      2174      2177      2180      2181
      2174      2177      2180      2182      2175      2174      2177      2178
      2175      2174      2177      2179      2175      2174      2177      2180
      2176      2174      2177      2178      2176      2174      2177      2179
      2176      2174      2177      2180      2177      2180      2182      2183
      2177      2180      2182      2184      2178      2177      2180      2181
      2178      2177      2180      2182      2179      2177      2180      2181
      2179      2177      2180      2182      2180      2182      2184      2185
      2180      2182      2184      2186      2180      2182      2184      2187
      2181      2180      2182      2183      2181      2180      2182      2184
      2182      2184      2187      2188      2182      2184      2187      2189
      2182      2184      2187      2190      2183      2182      2184      2185
      2183      2182      2184      2186      2183      2182      2184      2187
      2184      2187      2190      2191      2184      2187      2190      2192
      2184      2187      2190      2193      2185      2184      2187      2188
      2185      2184      2187      2189      2185      2184      2187      2190
      2186      2184      2187      2188      2186      2184      2187      2189
      2186      2184      2187      2190      2187      2190      2193      2194
      2187      2190      2193      2195      2187      2190      2193      2196
      2188      2187      2190      2191      2188      2187      2190      2192
      2188      2187      2190      2193      2189      2187      2190      2191
      2189      2187      2190      2192      2189      2187      2190      2193
      2190      2193      2196      2197      2190      2193      2196      2198
      2190      2193      2196      2199      2191      2190      2193      2194
      2191      2190      2193      2195      2191      2190      2193      2196
      2192      2190      2193      2194      2192      2190      2193      2195
      2192      2190      2193      2196      2193      2196      2199      2200
      2193      2196      2199      2201      2193      2196      2199      2202
      2194      2193      2196      2197      2194      2193      2196      2198
      2194      2193      2196      2199      2195      2193      2196      2197
      2195      2193      2196      2198      2195      2193      2196      2199
      2196      2199      2202      2203      2196      2199      2202      2204
      2196      2199      2202      2205      2197      2196      2199      2200
      2197      2196      2199      2201      2197      2196      2199      2202
      2198      2196      2199      2200      2198      2196      2199      2201
      2198      2196      2199      2202      2199      2202      2205      2206
      2199      2202      2205      2207      2199      2202      2205      2208
      2200      2199      2202      2203      2200      2199      2202      2204
      2200      2199      2202      2205      2201      2199      2202      2203
      2201      2199      2202      2204      2201      2199      2202      2205
      2203      2202      2205      2206      2203      2202      2205      2207
      2203      2202      2205      2208      2204      2202      2205      2206
      2204      2202      2205      2207      2204      2202      2205      2208
      2209      2210      2225      2226      2209      2210      2225      2227
      2209      2210      2225      2231      2210      2209      2213      2214
      2210      2209      2213      2215      2210      2209      2213      2216
      2210      2209      2217      2218      2210      2209      2217      2219
      2210      2209      2217      2220      2210      2209      2221      2222
      2210      2209      2221      2223      2210      2209      2221      2224
      2210      2225      2231      2228      2211      2210      2209      2213
      2211      2210      2209      2217      2211      2210      2209      2221
      2211      2210      2225      2226      2211      2210      2225      2227
      2211      2210      2225      2231      2212      2210      2209      2213
      2212      2210      2209      2217      2212      2210      2209      2221
      2212      2210      2225      2226      2212      2210      2225      2227
      2212      2210      2225      2231      2213      2209      2210      2225
      2213      2209      2217      2218      2213      2209      2217      2219
      2213      2209      2217      2220      2213      2209      2221      2222
      2213      2209      2221      2223      2213      2209      2221      2224
      2214      2213      2209      2217      2214      2213      2209      2221
      2215      2213      2209      2217      2215      2213      2209      2221
      2216      2213      2209      2217      2216      2213      2209      2221
      2217      2209      2210      2225      2217      2209      2221      2222
      2217      2209      2221      2223      2217      2209      2221      2224
      2218      2217      2209      2221      2219      2217      2209      2221
      2220      2217      2209      2221      2221      2209      2210      2225
      2225      2231      2228      2229      2225      2231      2228      2230
      2225      2231      2228      2232      2226      2225      2231      2228
      2227      2225      2231      2228      2228      2232      2233      2234
      2228      2232      2233      2235      2228      2232      2233      2236
      2229      2228      2232      2233      2230      2228      2232      2233
      2231      2228      2232      2233      2232      2233      2236      2237
      2232      2233      2236      2238      2232      2233      2236      2244
      2233      2236      2238      2239      2233      2236      2244      2245
      2233      2236      2244      2246      2233      2236      2244      2247
      2234      2233      2236      2237      2234      2233      2236      2238
      2234      2233      2236      2244      2235      2233      2236      2237
      2235      2233      2236      2238      2235      2233      2236      2244
      2236      2238      2239      2240      2236      2238      2239      2241
      2236      2244      2247      2248      2237      2236      2238      2239
      2237      2236      2244      2245      2237      2236      2244      2246
      2237      2236      2244      2247      2238      2236      2244      2245
      2238      2236      2244      2246      2238      2236      2244      2247
      2238      2239      2241      2242      2238      2239      2241      2243
      2238      2239      2241      2253      2239      2238      2236      2244
      2239      2241      2253      2254      2239      2241      2253      2255
      2239      2241      2253      2256      2240      2239      2241      2242
      2240      2239      2241      2243      2240      2239      2241      2253
      2241      2253      2256      2257      2241      2253      2256      2258
      2241      2253      2256      2259      2242      2241      2253      2254
      2242      2241      2253      2255      2242      2241      2253      2256
      2243      2241      2253      2254      2243      2241      2253      2255
      2243      2241      2253      2256      2244      2247      2248      2249
      2244      2247      2248      2250      2245      2244      2247      2248
      2246      2244      2247      2248      2247      2248      2250      2251
      2247      2248      2250      2252      2247      2248      2250      2300
      2248      2250      2300      2301      2248      2250      2300      2302
      2248      2250      2300      2303      2249      2248      2250      2251
      2249      2248      2250      2252      2249      2248      2250      2300
      2250      2300      2303      2304      2250      2300      2303      2305
      2250      2300      2303      2306      2251      2250      2300      2301
      2251      2250      2300      2302      2251      2250      2300      2303
      2252      2250      2300      2301      2252      2250      2300      2302
      2252      2250      2300      2303      2253      2256      2259      2260
      2253      2256      2259      2261      2253      2256      2259      2262
      2254      2253      2256      2257      2254      2253      2256      2258
      2254      2253      2256      2259      2255      2253      2256      2257
      2255      2253      2256      2258      2255      2253      2256      2259
      2256      2259      2262      2263      2256      2259      2262      2264
      2256      2259      2262      2265      2257      2256      2259      2260
      2257      2256      2259      2261      2257      2256      2259      2262
      2258      2256      2259      2260      2258      2256      2259      2261
      2258      2256      2259      2262      2259      2262      2265      2266
      2259      2262      2265      2267      2259      2262      2265      2268
      2260      2259      2262      2263      2260      2259      2262      2264
      2260      2259      2262      2265      2261      2259      2262      2263
      2261      2259      2262      2264      2261      2259      2262      2265
      2262      2265      2268      2269      2262      2265      2268      2270
      2262      2265      2268      2271      2263      2262      2265      2266
      2263      2262      2265      2267      2263      2262      2265      2268
      2264      2262      2265      2266      2264      2262      2265      2267
      2264      2262      2265      2268      2265      2268      2271      2272
      2265      2268      2271      2273      2266      2265      2268      2269
      2266      2265      2268      2270      2266      2265      2268      2271
      2267      2265      2268      2269      2267      2265      2268      2270
      2267      2265      2268      2271      2268      2271      2273      2274
      2268      2271      2273      2275      2269      2268      2271      2272
      2269      2268      2271      2273      2270      2268      2271      2272
      2270      2268      2271      2273      2271      2273      2275      2276
      2271      2273      2275      2277      2271      2273      2275      2278
      2272      2271      2273      2274      2272      2271      2273      2275
      2273      2275      2278      2279      2273      2275      2278      2280
      2273      2275      2278      2281      2274      2273      2275      2276
      2274      2273      2275      2277      2274      2273      2275      2278
      2275      2278      2281      2282      2275      2278      2281      2283
      2275      2278      2281      2284      2276      2275      2278      2279
      2276      2275      2278      2280      2276      2275      2278      2281
      2277      2275      2278      2279      2277      2275      2278      2280
      2277      2275      2278      2281      2278      2281      2284      2285
      2278      2281      2284      2286      2278      2281      2284      2287
      2279      2278      2281      2282      2279      2278      2281      2283
      2279      2278      2281      2284      2280      2278      2281      2282
      2280      2278      2281      2283      2280      2278      2281      2284
      2281      2284      2287      2288      2281      2284      2287      2289
      2281      2284      2287      2290      2282      2281      2284      2285
      2282      2281      2284      2286      2282      2281      2284      2287
      2283      2281      2284      2285      2283      2281      2284      2286
      2283      2281      2284      2287      2284      2287      2290      2291
      2284      2287      2290      2292      2284      2287      2290      2293
      2285      2284      2287      2288      2285      2284      2287      2289
      2285      2284      2287      2290      2286      2284      2287      2288
      2286      2284      2287      2289      2286      2284      2287      2290
      2287      2290      2293      2294      2287      2290      2293      2295
      2287      2290      2293      2296      2288      2287      2290      2291
      2288      2287      2290      2292      2288      2287      2290      2293
      2289      2287      2290      2291      2289      2287      2290      2292
      2289      2287      2290      2293      2290      2293      2296      2297
      2290      2293      2296      2298      2290      2293      2296      2299
      2291      2290      2293      2294      2291      2290      2293      2295
      2291      2290      2293      2296      2292      2290      2293      2294
      2292      2290      2293      2295      2292      2290      2293      2296
      2294      2293      2296      2297      2294      2293      2296      2298
      2294      2293      2296      2299      2295      2293      2296      2297
      2295      2293      2296      2298      2295      2293      2296      2299
      2300      2303      2306      2307      2300      2303      2306      2308
      2300      2303      2306      2309      2301      2300      2303      2304
      2301      2300      2303      2305      2301      2300      2303      2306
      2302      2300      2303      2304      2302      2300      2303      2305
      2302      2300      2303      2306      2303      2306      2309      2310
      2303      2306      2309      2311      2303      2306      2309      2312
      2304      2303      2306      2307      2304      2303      2306      2308
      2304      2303      2306      2309      2305      2303      2306      2307
      2305      2303      2306      2308      2305      2303      2306      2309
      2306      2309      2312      2313      2306      2309      2312      2314
      2306      2309      2312      2315      2307      2306      2309      2310
      2307      2306      2309      2311      2307      2306      2309      2312
      2308      2306      2309      2310      2308      2306      2309      2311
      2308      2306      2309      2312      2309      2312      2315      2316
      2309      2312      2315      2317      2309      2312      2315      2318
      2310      2309      2312      2313      2310      2309      2312      2314
      2310      2309      2312      2315      2311      2309      2312      2313
      2311      2309      2312      2314      2311      2309      2312      2315
      2312      2315      2318      2319      2312      2315      2318      2320
      2313      2312      2315      2316      2313      2312      2315      2317
      2313      2312      2315      2318      2314      2312      2315      2316
      2314      2312      2315      2317      2314      2312      2315      2318
      2315      2318      2320      2321      2315      2318      2320      2322
      2316      2315      2318      2319      2316      2315      2318      2320
      2317      2315      2318      2319      2317      2315      2318      2320
      2318      2320      2322      2323      2318      2320      2322      2324
      2318      2320      2322      2325      2319      2318      2320      2321
      2319      2318      2320      2322      2320      2322      2325      2326
      2320      2322      2325      2327      2320      2322      2325      2328
      2321      2320      2322      2323      2321      2320      2322      2324
      2321      2320      2322      2325      2322      2325      2328      2329
      2322      2325      2328      2330      2322      2325      2328      2331
      2323      2322      2325      2326      2323      2322      2325      2327
      2323      2322      2325      2328      2324      2322      2325      2326
      2324      2322      2325      2327      2324      2322      2325      2328
      2325      2328      2331      2332      2325      2328      2331      2333
      2325      2328      2331      2334      2326      2325      2328      2329
      2326      2325      2328      2330      2326      2325      2328      2331
      2327      2325      2328      2329      2327      2325      2328      2330
      2327      2325      2328      2331      2328      2331      2334      2335
      2328      2331      2334      2336      2328      2331      2334      2337
      2329      2328      2331      2332      2329      2328      2331      2333
      2329      2328      2331      2334      2330      2328      2331      2332
      2330      2328      2331      2333      2330      2328      2331      2334
      2331      2334      2337      2338      2331      2334      2337      2339
      2331      2334      2337      2340      2332      2331      2334      2335
      2332      2331      2334      2336      2332      2331      2334      2337
      2333      2331      2334      2335      2333      2331      2334      2336
      2333      2331      2334      2337      2334      2337      2340      2341
      2334      2337      2340      2342      2334      2337      2340      2343
      2335      2334      2337      2338      2335      2334      2337      2339
      2335      2334      2337      2340      2336      2334      2337      2338
      2336      2334      2337      2339      2336      2334      2337      2340
      2337      2340      2343      2344      2337      2340      2343      2345
      2337      2340      2343      2346      2338      2337      2340      2341
      2338      2337      2340      2342      2338      2337      2340      2343
      2339      2337      2340      2341      2339      2337      2340      2342
      2339      2337      2340      2343      2341      2340      2343      2344
      2341      2340      2343      2345      2341      2340      2343      2346
      2342      2340      2343      2344      2342      2340      2343      2345
      2342      2340      2343      2346      2347      2348      2363      2364
      2347      2348      2363      2365      2347      2348      2363      2369
      2348      2347      2351      2352      2348      2347      2351      2353
      2348      2347      2351      2354      2348      2347      2355      2356
      2348      2347      2355      2357      2348      2347      2355      2358
      2348      2347      2359      2360      2348      2347      2359      2361
      2348      2347      2359      2362      2348      2363      2369      2366
      2349      2348      2347      2351      2349      2348      2347      2355
      2349      2348      2347      2359      2349      2348      2363      2364
      2349      2348      2363      2365      2349      2348      2363      2369
      2350      2348      2347      2351      2350      2348      2347      2355
      2350      2348      2347      2359      2350      2348      2363      2364
      2350      2348      2363      2365      2350      2348      2363      2369
      2351      2347      2348      2363      2351      2347      2355      2356
      2351      2347      2355      2357      2351      2347      2355      2358
      2351      2347      2359      2360      2351      2347      2359      2361
      2351      2347      2359      2362      2352      2351      2347      2355
      2352      2351      2347      2359      2353      2351      2347      2355
      2353      2351      2347      2359      2354      2351      2347      2355
      2354      2351      2347      2359      2355      2347      2348      2363
      2355      2347      2359      2360      2355      2347      2359      2361
      2355      2347      2359      2362      2356      2355      2347      2359
      2357      2355      2347      2359      2358      2355      2347      2359
      2359      2347      2348      2363      2363      2369      2366      2367
      2363      2369      2366      2368      2363      2369      2366      2370
      2364      2363      2369      2366      2365      2363      2369      2366
      2366      2370      2371      2372      2366      2370      2371      2373
      2366      2370      2371      2374      2367      2366      2370      2371
      2368      2366      2370      2371      2369      2366      2370      2371
      2370      2371      2374      2375      2370      2371      2374      2376
      2370      2371      2374      2382      2371      2374      2376      2377
      2371      2374      2382      2383      2371      2374      2382      2384
      2371      2374      2382      2385      2372      2371      2374      2375
      2372      2371      2374      2376      2372      2371      2374      2382
      2373      2371      2374      2375      2373      2371      2374      2376
      2373      2371      2374      2382      2374      2376      2377      2378
      2374      2376      2377      2379      2374      2382      2385      2386
      2375      2374      2376      2377      2375      2374      2382      2383
      2375      2374      2382      2384      2375      2374      2382      2385
      2376      2374      2382      2383      2376      2374      2382      2384
      2376      2374      2382      2385      2376      2377      2379      2380
      2376      2377      2379      2381      2376      2377      2379      2391
      2377      2376      2374      2382      2377      2379      2391      2392
      2377      2379      2391      2393      2377      2379      2391      2394
      2378      2377      2379      2380      2378      2377      2379      2381
      2378      2377      2379      2391      2379      2391      2394      2395
      2379      2391      2394      2396      2379      2391      2394      2397
      2380      2379      2391      2392      2380      2379      2391      2393
      2380      2379      2391      2394      2381      2379      2391      2392
      2381      2379      2391      2393      2381      2379      2391      2394
      2382      2385      2386      2387      2382      2385      2386      2388
      2383      2382      2385      2386      2384      2382      2385      2386
      2385      2386      2388      2389      2385      2386      2388      2390
      2385      2386      2388      2438      2386      2388      2438      2439
      2386      2388      2438      2440      2386      2388      2438      2441
      2387      2386      2388      2389      2387      2386      2388      2390
      2387      2386      2388      2438      2388      2438      2441      2442
      2388      2438      2441      2443      2388      2438      2441      2444
      2389      2388      2438      2439      2389      2388      2438      2440
      2389      2388      2438      2441      2390      2388      2438      2439
      2390      2388      2438      2440      2390      2388      2438      2441
      2391      2394      2397      2398      2391      2394      2397      2399
      2391      2394      2397      2400      2392      2391      2394      2395
      2392      2391      2394      2396      2392      2391      2394      2397
      2393      2391      2394      2395      2393      2391      2394      2396
      2393      2391      2394      2397      2394      2397      2400      2401
      2394      2397      2400      2402      2394      2397      2400      2403
      2395      2394      2397      2398      2395      2394      2397      2399
      2395      2394      2397      2400      2396      2394      2397      2398
      2396      2394      2397      2399      2396      2394      2397      2400
      2397      2400      2403      2404      2397      2400      2403      2405
      2397      2400      2403      2406      2398      2397      2400      2401
      2398      2397      2400      2402      2398      2397      2400      2403
      2399      2397      2400      2401      2399      2397      2400      2402
      2399      2397      2400      2403      2400      2403      2406      2407
      2400      2403      2406      2408      2400      2403      2406      2409
      2401      2400      2403      2404      2401      2400      2403      2405
      2401      2400      2403      2406      2402      2400      2403      2404
      2402      2400      2403      2405      2402      2400      2403      2406
      2403      2406      2409      2410      2403      2406      2409      2411
      2404      2403      2406      2407      2404      2403      2406      2408
      2404      2403      2406      2409      2405      2403      2406      2407
      2405      2403      2406      2408      2405      2403      2406      2409
      2406      2409      2411      2412      2406      2409      2411      2413
      2407      2406      2409      2410      2407      2406      2409      2411
      2408      2406      2409      2410      2408      2406      2409      2411
      2409      2411      2413      2414      2409      2411      2413      2415
      2409      2411      2413      2416      2410      2409      2411      2412
      2410      2409      2411      2413      2411      2413      2416      2417
      2411      2413      2416      2418      2411      2413      2416      2419
      2412      2411      2413      2414      2412      2411      2413      2415
      2412      2411      2413      2416      2413      2416      2419      2420
      2413      2416      2419      2421      2413      2416      2419      2422
      2414      2413      2416      2417      2414      2413      2416      2418
      2414      2413      2416      2419      2415      2413      2416      2417
      2415      2413      2416      2418      2415      2413      2416      2419
      2416      2419      2422      2423      2416      2419      2422      2424
      2416      2419      2422      2425      2417      2416      2419      2420
      2417      2416      2419      2421      2417      2416      2419      2422
      2418      2416      2419      2420      2418      2416      2419      2421
      2418      2416      2419      2422      2419      2422      2425      2426
      2419      2422      2425      2427      2419      2422      2425      2428
      2420      2419      2422      2423      2420      2419      2422      2424
      2420      2419      2422      2425      2421      2419      2422      2423
      2421      2419      2422      2424      2421      2419      2422      2425
      2422      2425      2428      2429      2422      2425      2428      2430
      2422      2425      2428      2431      2423      2422      2425      2426
      2423      2422      2425      2427      2423      2422      2425      2428
      2424      2422      2425      2426      2424      2422      2425      2427
      2424      2422      2425      2428      2425      2428      2431      2432
      2425      2428      2431      2433      2425      2428      2431      2434
      2426      2425      2428      2429      2426      2425      2428      2430
      2426      2425      2428      2431      2427      2425      2428      2429
      2427      2425      2428      2430      2427      2425      2428      2431
      2428      2431      2434      2435      2428      2431      2434      2436
      2428      2431      2434      2437      2429      2428      2431      2432
      2429      2428      2431      2433      2429      2428      2431      2434
      2430      2428      2431      2432      2430      2428      2431      2433
      2430      2428      2431      2434      2432      2431      2434      2435
      2432      2431      2434      2436      2432      2431      2434      2437
      2433      2431      2434      2435      2433      2431      2434      2436
      2433      2431      2434      2437      2438      2441      2444      2445
      2438      2441      2444      2446      2438      2441      2444      2447
      2439      2438      2441      2442      2439      2438      2441      2443
      2439      2438      2441      2444      2440      2438      2441      2442
      2440      2438      2441      2443      2440      2438      2441      2444
      2441      2444      2447      2448      2441      2444      2447      2449
      2441      2444      2447      2450      2442      2441      2444      2445
      2442      2441      2444      2446      2442      2441      2444      2447
      2443      2441      2444      2445      2443      2441      2444      2446
      2443      2441      2444      2447      2444      2447      2450      2451
      2444      2447      2450      2452      2444      2447      2450      2453
      2445      2444      2447      2448      2445      2444      2447      2449
      2445      2444      2447      2450      2446      2444      2447      2448
      2446      2444      2447      2449      2446      2444      2447      2450
      2447      2450      2453      2454      2447      2450      2453      2455
      2447      2450      2453      2456      2448      2447      2450      2451
      2448      2447      2450      2452      2448      2447      2450      2453
      2449      2447      2450      2451      2449      2447      2450      2452
      2449      2447      2450      2453      2450      2453      2456      2457
      2450      2453      2456      2458      2451      2450      2453      2454
      2451      2450      2453      2455      2451      2450      2453      2456
      2452      2450      2453      2454      2452      2450      2453      2455
      2452      2450      2453      2456      2453      2456      2458      2459
      2453      2456      2458      2460      2454      2453      2456      2457
      2454      2453      2456      2458      2455      2453      2456      2457
      2455      2453      2456      2458      2456      2458      2460      2461
      2456      2458      2460      2462      2456      2458      2460      2463
      2457      2456      2458      2459      2457      2456      2458      2460
      2458      2460      2463      2464      2458      2460      2463      2465
      2458      2460      2463      2466      2459      2458      2460      2461
      2459      2458      2460      2462      2459      2458      2460      2463
      2460      2463      2466      2467      2460      2463      2466      2468
      2460      2463      2466      2469      2461      2460      2463      2464
      2461      2460      2463      2465      2461      2460      2463      2466
      2462      2460      2463      2464      2462      2460      2463      2465
      2462      2460      2463      2466      2463      2466      2469      2470
      2463      2466      2469      2471      2463      2466      2469      2472
      2464      2463      2466      2467      2464      2463      2466      2468
      2464      2463      2466      2469      2465      2463      2466      2467
      2465      2463      2466      2468      2465      2463      2466      2469
      2466      2469      2472      2473      2466      2469      2472      2474
      2466      2469      2472      2475      2467      2466      2469      2470
      2467      2466      2469      2471      2467      2466      2469      2472
      2468      2466      2469      2470      2468      2466      2469      2471
      2468      2466      2469      2472      2469      2472      2475      2476
      2469      2472      2475      2477      2469      2472      2475      2478
      2470      2469      2472      2473      2470      2469      2472      2474
      2470      2469      2472      2475      2471      2469      2472      2473
      2471      2469      2472      2474      2471      2469      2472      2475
      2472      2475      2478      2479      2472      2475      2478      2480
      2472      2475      2478      2481      2473      2472      2475      2476
      2473      2472      2475      2477      2473      2472      2475      2478
      2474      2472      2475      2476      2474      2472      2475      2477
      2474      2472      2475      2478      2475      2478      2481      2482
      2475      2478      2481      2483      2475      2478      2481      2484
      2476      2475      2478      2479      2476      2475      2478      2480
      2476      2475      2478      2481      2477      2475      2478      2479
      2477      2475      2478      2480      2477      2475      2478      2481
      2479      2478      2481      2482      2479      2478      2481      2483
      2479      2478      2481      2484      2480      2478      2481      2482
      2480      2478      2481      2483      2480      2478      2481      2484
      2485      2486      2501      2502      2485      2486      2501      2503
      2485      2486      2501      2507      2486      2485      2489      2490
      2486      2485      2489      2491      2486      2485      2489      2492
      2486      2485      2493      2494      2486      2485      2493      2495
      2486      2485      2493      2496      2486      2485      2497      2498
      2486      2485      2497      2499      2486      2485      2497      2500
      2486      2501      2507      2504      2487      2486      2485      2489
      2487      2486      2485      2493      2487      2486      2485      2497
      2487      2486      2501      2502      2487      2486      2501      2503
      2487      2486      2501      2507      2488      2486      2485      2489
      2488      2486      2485      2493      2488      2486      2485      2497
      2488      2486      2501      2502      2488      2486      2501      2503
      2488      2486      2501      2507      2489      2485      2486      2501
      2489      2485      2493      2494      2489      2485      2493      2495
      2489      2485      2493      2496      2489      2485      2497      2498
      2489      2485      2497      2499      2489      2485      2497      2500
      2490      2489      2485      2493      2490      2489      2485      2497
      2491      2489      2485      2493      2491      2489      2485      2497
      2492      2489      2485      2493      2492      2489      2485      2497
      2493      2485      2486      2501      2493      2485      2497      2498
      2493      2485      2497      2499      2493      2485      2497      2500
      2494      2493      2485      2497      2495      2493      2485      2497
      2496      2493      2485      2497      2497      2485      2486      2501
      2501      2507      2504      2505      2501      2507      2504      2506
      2501      2507      2504      2508      2502      2501      2507      2504
      2503      2501      2507      2504      2504      2508      2509      2510
      2504      2508      2509      2511      2504      2508      2509      2512
      2505      2504      2508      2509      2506      2504      2508      2509
      2507      2504      2508      2509      2508      2509      2512      2513
      2508      2509      2512      2514      2508      2509      2512      2520
      2509      2512      2514      2515      2509      2512      2520      2521
      2509      2512      2520      2522      2509      2512      2520      2523
      2510      2509      2512      2513      2510      2509      2512      2514
      2510      2509      2512      2520      2511      2509      2512      2513
      2511      2509      2512      2514      2511      2509      2512      2520
      2512      2514      2515      2516      2512      2514      2515      2517
      2512      2520      2523      2524      2513      2512      2514      2515
      2513      2512      2520      2521      2513      2512      2520      2522
      2513      2512      2520      2523      2514      2512      2520      2521
      2514      2512      2520      2522      2514      2512      2520      2523
      2514      2515      2517      2518      2514      2515      2517      2519
      2514      2515      2517      2529      2515      2514      2512      2520
      2515      2517      2529      2530      2515      2517      2529      2531
      2515      2517      2529      2532      2516      2515      2517      2518
      2516      2515      2517      2519      2516      2515      2517      2529
      2517      2529      2532      2533      2517      2529      2532      2534
      2517      2529      2532      2535      2518      2517      2529      2530
      2518      2517      2529      2531      2518      2517      2529      2532
      2519      2517      2529      2530      2519      2517      2529      2531
      2519      2517      2529      2532      2520      2523      2524      2525
      2520      2523      2524      2526      2521      2520      2523      2524
      2522      2520      2523      2524      2523      2524      2526      2527
      2523      2524      2526      2528      2523      2524      2526      2576
      2524      2526      2576      2577      2524      2526      2576      2578
      2524      2526      2576      2579      2525      2524      2526      2527
      2525      2524      2526      2528      2525      2524      2526      2576
      2526      2576      2579      2580      2526      2576      2579      2581
      2526      2576      2579      2582      2527      2526      2576      2577
      2527      2526      2576      2578      2527      2526      2576      2579
      2528      2526      2576      2577      2528      2526      2576      2578
      2528      2526      2576      2579      2529      2532      2535      2536
      2529      2532      2535      2537      2529      2532      2535      2538
      2530      2529      2532      2533      2530      2529      2532      2534
      2530      2529      2532      2535      2531      2529      2532      2533
      2531      2529      2532      2534      2531      2529      2532      2535
      2532      2535      2538      2539      2532      2535      2538      2540
      2532      2535      2538      2541      2533      2532      2535      2536
      2533      2532      2535      2537      2533      2532      2535      2538
      2534      2532      2535      2536      2534      2532      2535      2537
      2534      2532      2535      2538      2535      2538      2541      2542
      2535      2538      2541      2543      2535      2538      2541      2544
      2536      2535      2538      2539      2536      2535      2538      2540
      2536      2535      2538      2541      2537      2535      2538      2539
      2537      2535      2538      2540      2537      2535      2538      2541
      2538      2541      2544      2545      2538      2541      2544      2546
      2538      2541      2544      2547      2539      2538      2541      2542
      2539      2538      2541      2543      2539      2538      2541      2544
      2540      2538      2541      2542      2540      2538      2541      2543
      2540      2538      2541      2544      2541      2544      2547      2548
      2541      2544      2547      2549      2542      2541      2544      2545
      2542      2541      2544      2546      2542      2541      2544      2547
      2543      2541      2544      2545      2543      2541      2544      2546
      2543      2541      2544      2547      2544      2547      2549      2550
      2544      2547      2549      2551      2545      2544      2547      2548
      2545      2544      2547      2549      2546      2544      2547      2548
      2546      2544      2547      2549      2547      2549      2551      2552
      2547      2549      2551      2553      2547      2549      2551      2554
      2548      2547      2549      2550      2548      2547      2549      2551
      2549      2551      2554      2555      2549      2551      2554      2556
      2549      2551      2554      2557      2550      2549      2551      2552
      2550      2549      2551      2553      2550      2549      2551      2554
      2551      2554      2557      2558      2551      2554      2557      2559
      2551      2554      2557      2560      2552      2551      2554      2555
      2552      2551      2554      2556      2552      2551      2554      2557
      2553      2551      2554      2555      2553      2551      2554      2556
      2553      2551      2554      2557      2554      2557      2560      2561
      2554      2557      2560      2562      2554      2557      2560      2563
      2555      2554      2557      2558      2555      2554      2557      2559
      2555      2554      2557      2560      2556      2554      2557      2558
      2556      2554      2557      2559      2556      2554      2557      2560
      2557      2560      2563      2564      2557      2560      2563      2565
      2557      2560      2563      2566      2558      2557      2560      2561
      2558      2557      2560      2562      2558      2557      2560      2563
      2559      2557      2560      2561      2559      2557      2560      2562
      2559      2557      2560      2563      2560      2563      2566      2567
      2560      2563      2566      2568      2560      2563      2566      2569
      2561      2560      2563      2564      2561      2560      2563      2565
      2561      2560      2563      2566      2562      2560      2563      2564
      2562      2560      2563      2565      2562      2560      2563      2566
      2563      2566      2569      2570      2563      2566      2569      2571
      2563      2566      2569      2572      2564      2563      2566      2567
      2564      2563      2566      2568      2564      2563      2566      2569
      2565      2563      2566      2567      2565      2563      2566      2568
      2565      2563      2566      2569      2566      2569      2572      2573
      2566      2569      2572      2574      2566      2569      2572      2575
      2567      2566      2569      2570      2567      2566      2569      2571
      2567      2566      2569      2572      2568      2566      2569      2570
      2568      2566      2569      2571      2568      2566      2569      2572
      2570      2569      2572      2573      2570      2569      2572      2574
      2570      2569      2572      2575      2571      2569      2572      2573
      2571      2569      2572      2574      2571      2569      2572      2575
      2576      2579      2582      2583      2576      2579      2582      2584
      2576      2579      2582      2585      2577      2576      2579      2580
      2577      2576      2579      2581      2577      2576      2579      2582
      2578      2576      2579      2580      2578      2576      2579      2581
      2578      2576      2579      2582      2579      2582      2585      2586
      2579      2582      2585      2587      2579      2582      2585      2588
      2580      2579      2582      2583      2580      2579      2582      2584
      2580      2579      2582      2585      2581      2579      2582      2583
      2581      2579      2582      2584      2581      2579      2582      2585
      2582      2585      2588      2589      2582      2585      2588      2590
      2582      2585      2588      2591      2583      2582      2585      2586
      2583      2582      2585      2587      2583      2582      2585      2588
      2584      2582      2585      2586      2584      2582      2585      2587
      2584      2582      2585      2588      2585      2588      2591      2592
      2585      2588      2591      2593      2585      2588      2591      2594
      2586      2585      2588      2589      2586      2585      2588      2590
      2586      2585      2588      2591      2587      2585      2588      2589
      2587      2585      2588      2590      2587      2585      2588      2591
      2588      2591      2594      2595      2588      2591      2594      2596
      2589      2588      2591      2592      2589      2588      2591      2593
      2589      2588      2591      2594      2590      2588      2591      2592
      2590      2588      2591      2593      2590      2588      2591      2594
      2591      2594      2596      2597      2591      2594      2596      2598
      2592      2591      2594      2595      2592      2591      2594      2596
      2593      2591      2594      2595      2593      2591      2594      2596
      2594      2596      2598      2599      2594      2596      2598      2600
      2594      2596      2598      2601      2595      2594      2596      2597
      2595      2594      2596      2598      2596      2598      2601      2602
      2596      2598      2601      2603      2596      2598      2601      2604
      2597      2596      2598      2599      2597      2596      2598      2600
      2597      2596      2598      2601      2598      2601      2604      2605
      2598      2601      2604      2606      2598      2601      2604      2607
      2599      2598      2601      2602      2599      2598      2601      2603
      2599      2598      2601      2604      2600      2598      2601      2602
      2600      2598      2601      2603      2600      2598      2601      2604
      2601      2604      2607      2608      2601      2604      2607      2609
      2601      2604      2607      2610      2602      2601      2604      2605
      2602      2601      2604      2606      2602      2601      2604      2607
      2603      2601      2604      2605      2603      2601      2604      2606
      2603      2601      2604      2607      2604      2607      2610      2611
      2604      2607      2610      2612      2604      2607      2610      2613
      2605      2604      2607      2608      2605      2604      2607      2609
      2605      2604      2607      2610      2606      2604      2607      2608
      2606      2604      2607      2609      2606      2604      2607      2610
      2607      2610      2613      2614      2607      2610      2613      2615
      2607      2610      2613      2616      2608      2607      2610      2611
      2608      2607      2610      2612      2608      2607      2610      2613
      2609      2607      2610      2611      2609      2607      2610      2612
      2609      2607      2610      2613      2610      2613      2616      2617
      2610      2613      2616      2618      2610      2613      2616      2619
      2611      2610      2613      2614      2611      2610      2613      2615
      2611      2610      2613      2616      2612      2610      2613      2614
      2612      2610      2613      2615      2612      2610      2613      2616
      2613      2616      2619      2620      2613      2616      2619      2621
      2613      2616      2619      2622      2614      2613      2616      2617
      2614      2613      2616      2618      2614      2613      2616      2619
      2615      2613      2616      2617      2615      2613      2616      2618
      2615      2613      2616      2619      2617      2616      2619      2620
      2617      2616      2619      2621      2617      2616      2619      2622
      2618      2616      2619      2620      2618      2616      2619      2621
      2618      2616      2619      2622      2623      2624      2639      2640
      2623      2624      2639      2641      2623      2624      2639      2645
      2624      2623      2627      2628      2624      2623      2627      2629
      2624      2623      2627      2630      2624      2623      2631      2632
      2624      2623      2631      2633      2624      2623      2631      2634
      2624      2623      2635      2636      2624      2623      2635      2637
      2624      2623      2635      2638      2624      2639      2645      2642
      2625      2624      2623      2627      2625      2624      2623      2631
      2625      2624      2623      2635      2625      2624      2639      2640
      2625      2624      2639      2641      2625      2624      2639      2645
      2626      2624      2623      2627      2626      2624      2623      2631
      2626      2624      2623      2635      2626      2624      2639      2640
      2626      2624      2639      2641      2626      2624      2639      2645
      2627      2623      2624      2639      2627      2623      2631      2632
      2627      2623      2631      2633      2627      2623      2631      2634
      2627      2623      2635      2636      2627      2623      2635      2637
      2627      2623      2635      2638      2628      2627      2623      2631
      2628      2627      2623      2635      2629      2627      2623      2631
      2629      2627      2623      2635      2630      2627      2623      2631
      2630      2627      2623      2635      2631      2623      2624      2639
      2631      2623      2635      2636      2631      2623      2635      2637
      2631      2623      2635      2638      2632      2631      2623      2635
      2633      2631      2623      2635      2634      2631      2623      2635
      2635      2623      2624      2639      2639      2645      2642      2643
      2639      2645      2642      2644      2639      2645      2642      2646
      2640      2639      2645      2642      2641      2639      2645      2642
      2642      2646      2647      2648      2642      2646      2647      2649
      2642      2646      2647      2650      2643      2642      2646      2647
      2644      2642      2646      2647      2645      2642      2646      2647
      2646      2647      2650      2651      2646      2647      2650      2652
      2646      2647      2650      2658      2647      2650      2652      2653
      2647      2650      2658      2659      2647      2650      2658      2660
      2647      2650      2658      2661      2648      2647      2650      2651
      2648      2647      2650      2652      2648      2647      2650      2658
      2649      2647      2650      2651      2649      2647      2650      2652
      2649      2647      2650      2658      2650      2652      2653      2654
      2650      2652      2653      2655      2650      2658      2661      2662
      2651      2650      2652      2653      2651      2650      2658      2659
      2651      2650      2658      2660      2651      2650      2658      2661
      2652      2650      2658      2659      2652      2650      2658      2660
      2652      2650      2658      2661      2652      2653      2655      2656
      2652      2653      2655      2657      2652      2653      2655      2667
      2653      2652      2650      2658      2653      2655      2667      2668
      2653      2655      2667      2669      2653      2655      2667      2670
      2654      2653      2655      2656      2654      2653      2655      2657
      2654      2653      2655      2667      2655      2667      2670      2671
      2655      2667      2670      2672      2655      2667      2670      2673
      2656      2655      2667      2668      2656      2655      2667      2669
      2656      2655      2667      2670      2657      2655      2667      2668
      2657      2655      2667      2669      2657      2655      2667      2670
      2658      2661      2662      2663      2658      2661      2662      2664
      2659      2658      2661      2662      2660      2658      2661      2662
      2661      2662      2664      2665      2661      2662      2664      2666
      2661      2662      2664      2714      2662      2664      2714      2715
      2662      2664      2714      2716      2662      2664      2714      2717
      2663      2662      2664      2665      2663      2662      2664      2666
      2663      2662      2664      2714      2664      2714      2717      2718
      2664      2714      2717      2719      2664      2714      2717      2720
      2665      2664      2714      2715      2665      2664      2714      2716
      2665      2664      2714      2717      2666      2664      2714      2715
      2666      2664      2714      2716      2666      2664      2714      2717
      2667      2670      2673      2674      2667      2670      2673      2675
      2667      2670      2673      2676      2668      2667      2670      2671
      2668      2667      2670      2672      2668      2667      2670      2673
      2669      2667      2670      2671      2669      2667      2670      2672
      2669      2667      2670      2673      2670      2673      2676      2677
      2670      2673      2676      2678      2670      2673      2676      2679
      2671      2670      2673      2674      2671      2670      2673      2675
      2671      2670      2673      2676      2672      2670      2673      2674
      2672      2670      2673      2675      2672      2670      2673      2676
      2673      2676      2679      2680      2673      2676      2679      2681
      2673      2676      2679      2682      2674      2673      2676      2677
      2674      2673      2676      2678      2674      2673      2676      2679
      2675      2673      2676      2677      2675      2673      2676      2678
      2675      2673      2676      2679      2676      2679      2682      2683
      2676      2679      2682      2684      2676      2679      2682      2685
      2677      2676      2679      2680      2677      2676      2679      2681
      2677      2676      2679      2682      2678      2676      2679      2680
      2678      2676      2679      2681      2678      2676      2679      2682
      2679      2682      2685      2686      2679      2682      2685      2687
      2680      2679      2682      2683      2680      2679      2682      2684
      2680      2679      2682      2685      2681      2679      2682      2683
      2681      2679      2682      2684      2681      2679      2682      2685
      2682      2685      2687      2688      2682      2685      2687      2689
      2683      2682      2685      2686      2683      2682      2685      2687
      2684      2682      2685      2686      2684      2682      2685      2687
      2685      2687      2689      2690      2685      2687      2689      2691
      2685      2687      2689      2692      2686      2685      2687      2688
      2686      2685      2687      2689      2687      2689      2692      2693
      2687      2689      2692      2694      2687      2689      2692      2695
      2688      2687      2689      2690      2688      2687      2689      2691
      2688      2687      2689      2692      2689      2692      2695      2696
      2689      2692      2695      2697      2689      2692      2695      2698
      2690      2689      2692      2693      2690      2689      2692      2694
      2690      2689      2692      2695      2691      2689      2692      2693
      2691      2689      2692      2694      2691      2689      2692      2695
      2692      2695      2698      2699      2692      2695      2698      2700
      2692      2695      2698      2701      2693      2692      2695      2696
      2693      2692      2695      2697      2693      2692      2695      2698
      2694      2692      2695      2696      2694      2692      2695      2697
      2694      2692      2695      2698      2695      2698      2701      2702
      2695      2698      2701      2703      2695      2698      2701      2704
      2696      2695      2698      2699      2696      2695      2698      2700
      2696      2695      2698      2701      2697      2695      2698      2699
      2697      2695      2698      2700      2697      2695      2698      2701
      2698      2701      2704      2705      2698      2701      2704      2706
      2698      2701      2704      2707      2699      2698      2701      2702
      2699      2698      2701      2703      2699      2698      2701      2704
      2700      2698      2701      2702      2700      2698      2701      2703
      2700      2698      2701      2704      2701      2704      2707      2708
      2701      2704      2707      2709      2701      2704      2707      2710
      2702      2701      2704      2705      2702      2701      2704      2706
      2702      2701      2704      2707      2703      2701      2704      2705
      2703      2701      2704      2706      2703      2701      2704      2707
      2704      2707      2710      2711      2704      2707      2710      2712
      2704      2707      2710      2713      2705      2704      2707      2708
      2705      2704      2707      2709      2705      2704      2707      2710
      2706      2704      2707      2708      2706      2704      2707      2709
      2706      2704      2707      2710      2708      2707      2710      2711
      2708      2707      2710      2712      2708      2707      2710      2713
      2709      2707      2710      2711      2709      2707      2710      2712
      2709      2707      2710      2713      2714      2717      2720      2721
      2714      2717      2720      2722      2714      2717      2720      2723
      2715      2714      2717      2718      2715      2714      2717      2719
      2715      2714      2717      2720      2716      2714      2717      2718
      2716      2714      2717      2719      2716      2714      2717      2720
      2717      2720      2723      2724      2717      2720      2723      2725
      2717      2720      2723      2726      2718      2717      2720      2721
      2718      2717      2720      2722      2718      2717      2720      2723
      2719      2717      2720      2721      2719      2717      2720      2722
      2719      2717      2720      2723      2720      2723      2726      2727
      2720      2723      2726      2728      2720      2723      2726      2729
      2721      2720      2723      2724      2721      2720      2723      2725
      2721      2720      2723      2726      2722      2720      2723      2724
      2722      2720      2723      2725      2722      2720      2723      2726
      2723      2726      2729      2730      2723      2726      2729      2731
      2723      2726      2729      2732      2724      2723      2726      2727
      2724      2723      2726      2728      2724      2723      2726      2729
      2725      2723      2726      2727      2725      2723      2726      2728
      2725      2723      2726      2729      2726      2729      2732      2733
      2726      2729      2732      2734      2727      2726      2729      2730
      2727      2726      2729      2731      2727      2726      2729      2732
      2728      2726      2729      2730      2728      2726      2729      2731
      2728      2726      2729      2732      2729      2732      2734      2735
      2729      2732      2734      2736      2730      2729      2732      2733
      2730      2729      2732      2734      2731      2729      2732      2733
      2731      2729      2732      2734      2732      2734      2736      2737
      2732      2734      2736      2738      2732      2734      2736      2739
      2733      2732      2734      2735      2733      2732      2734      2736
      2734      2736      2739      2740      2734      2736      2739      2741
      2734      2736      2739      2742      2735      2734      2736      2737
      2735      2734      2736      2738      2735      2734      2736      2739
      2736      2739      2742      2743      2736      2739      2742      2744
      2736      2739      2742      2745      2737      2736      2739      2740
      2737      2736      2739      2741      2737      2736      2739      2742
      2738      2736      2739      2740      2738      2736      2739      2741
      2738      2736      2739      2742      2739      2742      2745      2746
      2739      2742      2745      2747      2739      2742      2745      2748
      2740      2739      2742      2743      2740      2739      2742      2744
      2740      2739      2742      2745      2741      2739      2742      2743
      2741      2739      2742      2744      2741      2739      2742      2745
      2742      2745      2748      2749      2742      2745      2748      2750
      2742      2745      2748      2751      2743      2742      2745      2746
      2743      2742      2745      2747      2743      2742      2745      2748
      2744      2742      2745      2746      2744      2742      2745      2747
      2744      2742      2745      2748      2745      2748      2751      2752
      2745      2748      2751      2753      2745      2748      2751      2754
      2746      2745      2748      2749      2746      2745      2748      2750
      2746      2745      2748      2751      2747      2745      2748      2749
      2747      2745      2748      2750      2747      2745      2748      2751
      2748      2751      2754      2755      2748      2751      2754      2756
      2748      2751      2754      2757      2749      2748      2751      2752
      2749      2748      2751      2753      2749      2748      2751      2754
      2750      2748      2751      2752      2750      2748      2751      2753
      2750      2748      2751      2754      2751      2754      2757      2758
      2751      2754      2757      2759      2751      2754      2757      2760
      2752      2751      2754      2755      2752      2751      2754      2756
      2752      2751      2754      2757      2753      2751      2754      2755
      2753      2751      2754      2756      2753      2751      2754      2757
      2755      2754      2757      2758      2755      2754      2757      2759
      2755      2754      2757      2760      2756      2754      2757      2758
      2756      2754      2757      2759      2756      2754      2757      2760
      2761      2762      2777      2778      2761      2762      2777      2779
      2761      2762      2777      2783      2762      2761      2765      2766
      2762      2761      2765      2767      2762      2761      2765      2768
      2762      2761      2769      2770      2762      2761      2769      2771
      2762      2761      2769      2772      2762      2761      2773      2774
      2762      2761      2773      2775      2762      2761      2773      2776
      2762      2777      2783      2780      2763      2762      2761      2765
      2763      2762      2761      2769      2763      2762      2761      2773
      2763      2762      2777      2778      2763      2762      2777      2779
      2763      2762      2777      2783      2764      2762      2761      2765
      2764      2762      2761      2769      2764      2762      2761      2773
      2764      2762      2777      2778      2764      2762      2777      2779
      2764      2762      2777      2783      2765      2761      2762      2777
      2765      2761      2769      2770      2765      2761      2769      2771
      2765      2761      2769      2772      2765      2761      2773      2774
      2765      2761      2773      2775      2765      2761      2773      2776
      2766      2765      2761      2769      2766      2765      2761      2773
      2767      2765      2761      2769      2767      2765      2761      2773
      2768      2765      2761      2769      2768      2765      2761      2773
      2769      2761      2762      2777      2769      2761      2773      2774
      2769      2761      2773      2775      2769      2761      2773      2776
      2770      2769      2761      2773      2771      2769      2761      2773
      2772      2769      2761      2773      2773      2761      2762      2777
      2777      2783      2780      2781      2777      2783      2780      2782
      2777      2783      2780      2784      2778      2777      2783      2780
      2779      2777      2783      2780      2780      2784      2785      2786
      2780      2784      2785      2787      2780      2784      2785      2788
      2781      2780      2784      2785      2782      2780      2784      2785
      2783      2780      2784      2785      2784      2785      2788      2789
      2784      2785      2788      2790      2784      2785      2788      2796
      2785      2788      2790      2791      2785      2788      2796      2797
      2785      2788      2796      2798      2785      2788      2796      2799
      2786      2785      2788      2789      2786      2785      2788      2790
      2786      2785      2788      2796      2787      2785      2788      2789
      2787      2785      2788      2790      2787      2785      2788      2796
      2788      2790      2791      2792      2788      2790      2791      2793
      2788      2796      2799      2800      2789      2788      2790      2791
      2789      2788      2796      2797      2789      2788      2796      2798
      2789      2788      2796      2799      2790      2788      2796      2797
      2790      2788      2796      2798      2790      2788      2796      2799
      2790      2791      2793      2794      2790      2791      2793      2795
      2790      2791      2793      2805      2791      2790      2788      2796
      2791      2793      2805      2806      2791      2793      2805      2807
      2791      2793      2805      2808      2792      2791      2793      2794
      2792      2791      2793      2795      2792      2791      2793      2805
      2793      2805      2808      2809      2793      2805      2808      2810
      2793      2805      2808      2811      2794      2793      2805      2806
      2794      2793      2805      2807      2794      2793      2805      2808
      2795      2793      2805      2806      2795      2793      2805      2807
      2795      2793      2805      2808      2796      2799      2800      2801
      2796      2799      2800      2802      2797      2796      2799      2800
      2798      2796      2799      2800      2799      2800      2802      2803
      2799      2800      2802      2804      2799      2800      2802      2852
      2800      2802      2852      2853      2800      2802      2852      2854
      2800      2802      2852      2855      2801      2800      2802      2803
      2801      2800      2802      2804      2801      2800      2802      2852
      2802      2852      2855      2856      2802      2852      2855      2857
      2802      2852      2855      2858      2803      2802      2852      2853
      2803      2802      2852      2854      2803      2802      2852      2855
      2804      2802      2852      2853      2804      2802      2852      2854
      2804      2802      2852      2855      2805      2808      2811      2812
      2805      2808      2811      2813      2805      2808      2811      2814
      2806      2805      2808      2809      2806      2805      2808      2810
      2806      2805      2808      2811      2807      2805      2808      2809
      2807      2805      2808      2810      2807      2805      2808      2811
      2808      2811      2814      2815      2808      2811      2814      2816
      2808      2811      2814      2817      2809      2808      2811      2812
      2809      2808      2811      2813      2809      2808      2811      2814
      2810      2808      2811      2812      2810      2808      2811      2813
      2810      2808      2811      2814      2811      2814      2817      2818
      2811      2814      2817      2819      2811      2814      2817      2820
      2812      2811      2814      2815      2812      2811      2814      2816
      2812      2811      2814      2817      2813      2811      2814      2815
      2813      2811      2814      2816      2813      2811      2814      2817
      2814      2817      2820      2821      2814      2817      2820      2822
      2814      2817      2820      2823      2815      2814      2817      2818
      2815      2814      2817      2819      2815      2814      2817      2820
      2816      2814      2817      2818      2816      2814      2817      2819
      2816      2814      2817      2820      2817      2820      2823      2824
      2817      2820      2823      2825      2818      2817      2820      2821
      2818      2817      2820      2822      2818      2817      2820      2823
      2819      2817      2820      2821      2819      2817      2820      2822
      2819      2817      2820      2823      2820      2823      2825      2826
      2820      2823      2825      2827      2821      2820      2823      2824
      2821      2820      2823      2825      2822      2820      2823      2824
      2822      2820      2823      2825      2823      2825      2827      2828
      2823      2825      2827      2829      2823      2825      2827      2830
      2824      2823      2825      2826      2824      2823      2825      2827
      2825      2827      2830      2831      2825      2827      2830      2832
      2825      2827      2830      2833      2826      2825      2827      2828
      2826      2825      2827      2829      2826      2825      2827      2830
      2827      2830      2833      2834      2827      2830      2833      2835
      2827      2830      2833      2836      2828      2827      2830      2831
      2828      2827      2830      2832      2828      2827      2830      2833
      2829      2827      2830      2831      2829      2827      2830      2832
      2829      2827      2830      2833      2830      2833      2836      2837
      2830      2833      2836      2838      2830      2833      2836      2839
      2831      2830      2833      2834      2831      2830      2833      2835
      2831      2830      2833      2836      2832      2830      2833      2834
      2832      2830      2833      2835      2832      2830      2833      2836
      2833      2836      2839      2840      2833      2836      2839      2841
      2833      2836      2839      2842      2834      2833      2836      2837
      2834      2833      2836      2838      2834      2833      2836      2839
      2835      2833      2836      2837      2835      2833      2836      2838
      2835      2833      2836      2839      2836      2839      2842      2843
      2836      2839      2842      2844      2836      2839      2842      2845
      2837      2836      2839      2840      2837      2836      2839      2841
      2837      2836      2839      2842      2838      2836      2839      2840
      2838      2836      2839      2841      2838      2836      2839      2842
      2839      2842      2845      2846      2839      2842      2845      2847
      2839      2842      2845      2848      2840      2839      2842      2843
      2840      2839      2842      2844      2840      2839      2842      2845
      2841      2839      2842      2843      2841      2839      2842      2844
      2841      2839      2842      2845      2842      2845      2848      2849
      2842      2845      2848      2850      2842      2845      2848      2851
      2843      2842      2845      2846      2843      2842      2845      2847
      2843      2842      2845      2848      2844      2842      2845      2846
      2844      2842      2845      2847      2844      2842      2845      2848
      2846      2845      2848      2849      2846      2845      2848      2850
      2846      2845      2848      2851      2847      2845      2848      2849
      2847      2845      2848      2850      2847      2845      2848      2851
      2852      2855      2858      2859      2852      2855      2858      2860
      2852      2855      2858      2861      2853      2852      2855      2856
      2853      2852      2855      2857      2853      2852      2855      2858
      2854      2852      2855      2856      2854      2852      2855      2857
      2854      2852      2855      2858      2855      2858      2861      2862
      2855      2858      2861      2863      2855      2858      2861      2864
      2856      2855      2858      2859      2856      2855      2858      2860
      2856      2855      2858      2861      2857      2855      2858      2859
      2857      2855      2858      2860      2857      2855      2858      2861
      2858      2861      2864      2865      2858      2861      2864      2866
      2858      2861      2864      2867      2859      2858      2861      2862
      2859      2858      2861      2863      2859      2858      2861      2864
      2860      2858      2861      2862      2860      2858      2861      2863
      2860      2858      2861      2864      2861      2864      2867      2868
      2861      2864      2867      2869      2861      2864      2867      2870
      2862      2861      2864      2865      2862      2861      2864      2866
      2862      2861      2864      2867      2863      2861      2864      2865
      2863      2861      2864      2866      2863      2861      2864      2867
      2864      2867      2870      2871      2864      2867      2870      2872
      2865      2864      2867      2868      2865      2864      2867      2869
      2865      2864      2867      2870      2866      2864      2867      2868
      2866      2864      2867      2869      2866      2864      2867      2870
      2867      2870      2872      2873      2867      2870      2872      2874
      2868      2867      2870      2871      2868      2867      2870      2872
      2869      2867      2870      2871      2869      2867      2870      2872
      2870      2872      2874      2875      2870      2872      2874      2876
      2870      2872      2874      2877      2871      2870      2872      2873
      2871      2870      2872      2874      2872      2874      2877      2878
      2872      2874      2877      2879      2872      2874      2877      2880
      2873      2872      2874      2875      2873      2872      2874      2876
      2873      2872      2874      2877      2874      2877      2880      2881
      2874      2877      2880      2882      2874      2877      2880      2883
      2875      2874      2877      2878      2875      2874      2877      2879
      2875      2874      2877      2880      2876      2874      2877      2878
      2876      2874      2877      2879      2876      2874      2877      2880
      2877      2880      2883      2884      2877      2880      2883      2885
      2877      2880      2883      2886      2878      2877      2880      2881
      2878      2877      2880      2882      2878      2877      2880      2883
      2879      2877      2880      2881      2879      2877      2880      2882
      2879      2877      2880      2883      2880      2883      2886      2887
      2880      2883      2886      2888      2880      2883      2886      2889
      2881      2880      2883      2884      2881      2880      2883      2885
      2881      2880      2883      2886      2882      2880      2883      2884
      2882      2880      2883      2885      2882      2880      2883      2886
      2883      2886      2889      2890      2883      2886      2889      2891
      2883      2886      2889      2892      2884      2883      2886      2887
      2884      2883      2886      2888      2884      2883      2886      2889
      2885      2883      2886      2887      2885      2883      2886      2888
      2885      2883      2886      2889      2886      2889      2892      2893
      2886      2889      2892      2894      2886      2889      2892      2895
      2887      2886      2889      2890      2887      2886      2889      2891
      2887      2886      2889      2892      2888      2886      2889      2890
      2888      2886      2889      2891      2888      2886      2889      2892
      2889      2892      2895      2896      2889      2892      2895      2897
      2889      2892      2895      2898      2890      2889      2892      2893
      2890      2889      2892      2894      2890      2889      2892      2895
      2891      2889      2892      2893      2891      2889      2892      2894
      2891      2889      2892      2895      2893      2892      2895      2896
      2893      2892      2895      2897      2893      2892      2895      2898
      2894      2892      2895      2896      2894      2892      2895      2897
      2894      2892      2895      2898      2899      2900      2915      2916
      2899      2900      2915      2917      2899      2900      2915      2921
      2900      2899      2903      2904      2900      2899      2903      2905
      2900      2899      2903      2906      2900      2899      2907      2908
      2900      2899      2907      2909      2900      2899      2907      2910
      2900      2899      2911      2912      2900      2899      2911      2913
      2900      2899      2911      2914      2900      2915      2921      2918
      2901      2900      2899      2903      2901      2900      2899      2907
      2901      2900      2899      2911      2901      2900      2915      2916
      2901      2900      2915      2917      2901      2900      2915      2921
      2902      2900      2899      2903      2902      2900      2899      2907
      2902      2900      2899      2911      2902      2900      2915      2916
      2902      2900      2915      2917      2902      2900      2915      2921
      2903      2899      2900      2915      2903      2899      2907      2908
      2903      2899      2907      2909      2903      2899      2907      2910
      2903      2899      2911      2912      2903      2899      2911      2913
      2903      2899      2911      2914      2904      2903      2899      2907
      2904      2903      2899      2911      2905      2903      2899      2907
      2905      2903      2899      2911      2906      2903      2899      2907
      2906      2903      2899      2911      2907      2899      2900      2915
      2907      2899      2911      2912      2907      2899      2911      2913
      2907      2899      2911      2914      2908      2907      2899      2911
      2909      2907      2899      2911      2910      2907      2899      2911
      2911      2899      2900      2915      2915      2921      2918      2919
      2915      2921      2918      2920      2915      2921      2918      2922
      2916      2915      2921      2918      2917      2915      2921      2918
      2918      2922      2923      2924      2918      2922      2923      2925
      2918      2922      2923      2926      2919      2918      2922      2923
      2920      2918      2922      2923      2921      2918      2922      2923
      2922      2923      2926      2927      2922      2923      2926      2928
      2922      2923      2926      2934      2923      2926      2928      2929
      2923      2926      2934      2935      2923      2926      2934      2936
      2923      2926      2934      2937      2924      2923      2926      2927
      2924      2923      2926      2928      2924      2923      2926      2934
      2925      2923      2926      2927      2925      2923      2926      2928
      2925      2923      2926      2934      2926      2928      2929      2930
      2926      2928      2929      2931      2926      2934      2937      2938
      2927      2926      2928      2929      2927      2926      2934      2935
      2927      2926      2934      2936      2927      2926      2934      2937
      2928      2926      2934      2935      2928      2926      2934      2936
      2928      2926      2934      2937      2928      2929      2931      2932
      2928      2929      2931      2933      2928      2929      2931      2943
      2929      2928      2926      2934      2929      2931      2943      2944
      2929      2931      2943      2945      2929      2931      2943      2946
      2930      2929      2931      2932      2930      2929      2931      2933
      2930      2929      2931      2943      2931      2943      2946      2947
      2931      2943      2946      2948      2931      2943      2946      2949
      2932      2931      2943      2944      2932      2931      2943      2945
      2932      2931      2943      2946      2933      2931      2943      2944
      2933      2931      2943      2945      2933      2931      2943      2946
      2934      2937      2938      2939      2934      2937      2938      2940
      2935      2934      2937      2938      2936      2934      2937      2938
      2937      2938      2940      2941      2937      2938      2940      2942
      2937      2938      2940      2990      2938      2940      2990      2991
      2938      2940      2990      2992      2938      2940      2990      2993
      2939      2938      2940      2941      2939      2938      2940      2942
      2939      2938      2940      2990      2940      2990      2993      2994
      2940      2990      2993      2995      2940      2990      2993      2996
      2941      2940      2990      2991      2941      2940      2990      2992
      2941      2940      2990      2993      2942      2940      2990      2991
      2942      2940      2990      2992      2942      2940      2990      2993
      2943      2946      2949      2950      2943      2946      2949      2951
      2943      2946      2949      2952      2944      2943      2946      2947
      2944      2943      2946      2948      2944      2943      2946      2949
      2945      2943      2946      2947      2945      2943      2946      2948
      2945      2943      2946      2949      2946      2949      2952      2953
      2946      2949      2952      2954      2946      2949      2952      2955
      2947      2946      2949      2950      2947      2946      2949      2951
      2947      2946      2949      2952      2948      2946      2949      2950
      2948      2946      2949      2951      2948      2946      2949      2952
      2949      2952      2955      2956      2949      2952      2955      2957
      2949      2952      2955      2958      2950      2949      2952      2953
      2950      2949      2952      2954      2950      2949      2952      2955
      2951      2949      2952      2953      2951      2949      2952      2954
      2951      2949      2952      2955      2952      2955      2958      2959
      2952      2955      2958      2960      2952      2955      2958      2961
      2953      2952      2955      2956      2953      2952      2955      2957
      2953      2952      2955      2958      2954      2952      2955      2956
      2954      2952      2955      2957      2954      2952      2955      2958
      2955      2958      2961      2962      2955      2958      2961      2963
      2956      2955      2958      2959      2956      2955      2958      2960
      2956      2955      2958      2961      2957      2955      2958      2959
      2957      2955      2958      2960      2957      2955      2958      2961
      2958      2961      2963      2964      2958      2961      2963      2965
      2959      2958      2961      2962      2959      2958      2961      2963
      2960      2958      2961      2962      2960      2958      2961      2963
      2961      2963      2965      2966      2961      2963      2965      2967
      2961      2963      2965      2968      2962      2961      2963      2964
      2962      2961      2963      2965      2963      2965      2968      2969
      2963      2965      2968      2970      2963      2965      2968      2971
      2964      2963      2965      2966      2964      2963      2965      2967
      2964      2963      2965      2968      2965      2968      2971      2972
      2965      2968      2971      2973      2965      2968      2971      2974
      2966      2965      2968      2969      2966      2965      2968      2970
      2966      2965      2968      2971      2967      2965      2968      2969
      2967      2965      2968      2970      2967      2965      2968      2971
      2968      2971      2974      2975      2968      2971      2974      2976
      2968      2971      2974      2977      2969      2968      2971      2972
      2969      2968      2971      2973      2969      2968      2971      2974
      2970      2968      2971      2972      2970      2968      2971      2973
      2970      2968      2971      2974      2971      2974      2977      2978
      2971      2974      2977      2979      2971      2974      2977      2980
      2972      2971      2974      2975      2972      2971      2974      2976
      2972      2971      2974      2977      2973      2971      2974      2975
      2973      2971      2974      2976      2973      2971      2974      2977
      2974      2977      2980      2981      2974      2977      2980      2982
      2974      2977      2980      2983      2975      2974      2977      2978
      2975      2974      2977      2979      2975      2974      2977      2980
      2976      2974      2977      2978      2976      2974      2977      2979
      2976      2974      2977      2980      2977      2980      2983      2984
      2977      2980      2983      2985      2977      2980      2983      2986
      2978      2977      2980      2981      2978      2977      2980      2982
      2978      2977      2980      2983      2979      2977      2980      2981
      2979      2977      2980      2982      2979      2977      2980      2983
      2980      2983      2986      2987      2980      2983      2986      2988
      2980      2983      2986      2989      2981      2980      2983      2984
      2981      2980      2983      2985      2981      2980      2983      2986
      2982      2980      2983      2984      2982      2980      2983      2985
      2982      2980      2983      2986      2984      2983      2986      2987
      2984      2983      2986      2988      2984      2983      2986      2989
      2985      2983      2986      2987      2985      2983      2986      2988
      2985      2983      2986      2989      2990      2993      2996      2997
      2990      2993      2996      2998      2990      2993      2996      2999
      2991      2990      2993      2994      2991      2990      2993      2995
      2991      2990      2993      2996      2992      2990      2993      2994
      2992      2990      2993      2995      2992      2990      2993      2996
      2993      2996      2999      3000      2993      2996      2999      3001
      2993      2996      2999      3002      2994      2993      2996      2997
      2994      2993      2996      2998      2994      2993      2996      2999
      2995      2993      2996      2997      2995      2993      2996      2998
      2995      2993      2996      2999      2996      2999      3002      3003
      2996      2999      3002      3004      2996      2999      3002      3005
      2997      2996      2999      3000      2997      2996      2999      3001
      2997      2996      2999      3002      2998      2996      2999      3000
      2998      2996      2999      3001      2998      2996      2999      3002
      2999      3002      3005      3006      2999      3002      3005      3007
      2999      3002      3005      3008      3000      2999      3002      3003
      3000      2999      3002      3004      3000      2999      3002      3005
      3001      2999      3002      3003      3001      2999      3002      3004
      3001      2999      3002      3005      3002      3005      3008      3009
      3002      3005      3008      3010      3003      3002      3005      3006
      3003      3002      3005      3007      3003      3002      3005      3008
      3004      3002      3005      3006      3004      3002      3005      3007
      3004      3002      3005      3008      3005      3008      3010      3011
      3005      3008      3010      3012      3006      3005      3008      3009
      3006      3005      3008      3010      3007      3005      3008      3009
      3007      3005      3008      3010      3008      3010      3012      3013
      3008      3010      3012      3014      3008      3010      3012      3015
      3009      3008      3010      3011      3009      3008      3010      3012
      3010      3012      3015      3016      3010      3012      3015      3017
      3010      3012      3015      3018      3011      3010      3012      3013
      3011      3010      3012      3014      3011      3010      3012      3015
      3012      3015      3018      3019      3012      3015      3018      3020
      3012      3015      3018      3021      3013      3012      3015      3016
      3013      3012      3015      3017      3013      3012      3015      3018
      3014      3012      3015      3016      3014      3012      3015      3017
      3014      3012      3015      3018      3015      3018      3021      3022
      3015      3018      3021      3023      3015      3018      3021      3024
      3016      3015      3018      3019      3016      3015      3018      3020
      3016      3015      3018      3021      3017      3015      3018      3019
      3017      3015      3018      3020      3017      3015      3018      3021
      3018      3021      3024      3025      3018      3021      3024      3026
      3018      3021      3024      3027      3019      3018      3021      3022
      3019      3018      3021      3023      3019      3018      3021      3024
      3020      3018      3021      3022      3020      3018      3021      3023
      3020      3018      3021      3024      3021      3024      3027      3028
      3021      3024      3027      3029      3021      3024      3027      3030
      3022      3021      3024      3025      3022      3021      3024      3026
      3022      3021      3024      3027      3023      3021      3024      3025
      3023      3021      3024      3026      3023      3021      3024      3027
      3024      3027      3030      3031      3024      3027      3030      3032
      3024      3027      3030      3033      3025      3024      3027      3028
      3025      3024      3027      3029      3025      3024      3027      3030
      3026      3024      3027      3028      3026      3024      3027      3029
      3026      3024      3027      3030      3027      3030      3033      3034
      3027      3030      3033      3035      3027      3030      3033      3036
      3028      3027      3030      3031      3028      3027      3030      3032
      3028      3027      3030      3033      3029      3027      3030      3031
      3029      3027      3030      3032      3029      3027      3030      3033
      3031      3030      3033      3034      3031      3030      3033      3035
      3031      3030      3033      3036      3032      3030      3033      3034
      3032      3030      3033      3035      3032      3030      3033      3036
      3037      3038      3053      3054      3037      3038      3053      3055
      3037      3038      3053      3059      3038      3037      3041      3042
      3038      3037      3041      3043      3038      3037      3041      3044
      3038      3037      3045      3046      3038      3037      3045      3047
      3038      3037      3045      3048      3038      3037      3049      3050
      3038      3037      3049      3051      3038      3037      3049      3052
      3038      3053      3059      3056      3039      3038      3037      3041
      3039      3038      3037      3045      3039      3038      3037      3049
      3039      3038      3053      3054      3039      3038      3053      3055
      3039      3038      3053      3059      3040      3038      3037      3041
      3040      3038      3037      3045      3040      3038      3037      3049
      3040      3038      3053      3054      3040      3038      3053      3055
      3040      3038      3053      3059      3041      3037      3038      3053
      3041      3037      3045      3046      3041      3037      3045      3047
      3041      3037      3045      3048      3041      3037      3049      3050
      3041      3037      3049      3051      3041      3037      3049      3052
      3042      3041      3037      3045      3042      3041      3037      3049
      3043      3041      3037      3045      3043      3041      3037      3049
      3044      3041      3037      3045      3044      3041      3037      3049
      3045      3037      3038      3053      3045      3037      3049      3050
      3045      3037      3049      3051      3045      3037      3049      3052
      3046      3045      3037      3049      3047      3045      3037      3049
      3048      3045      3037      3049      3049      3037      3038      3053
      3053      3059      3056      3057      3053      3059      3056      3058
      3053      3059      3056      3060      3054      3053      3059      3056
      3055      3053      3059      3056      3056      3060      3061      3062
      3056      3060      3061      3063      3056      3060      3061      3064
      3057      3056      3060      3061      3058      3056      3060      3061
      3059      3056      3060      3061      3060      3061      3064      3065
      3060      3061      3064      3066      3060      3061      3064      3072
      3061      3064      3066      3067      3061      3064      3072      3073
      3061      3064      3072      3074      3061      3064      3072      3075
      3062      3061      3064      3065      3062      3061      3064      3066
      3062      3061      3064      3072      3063      3061      3064      3065
      3063      3061      3064      3066      3063      3061      3064      3072
      3064      3066      3067      3068      3064      3066      3067      3069
      3064      3072      3075      3076      3065      3064      3066      3067
      3065      3064      3072      3073      3065      3064      3072      3074
      3065      3064      3072      3075      3066      3064      3072      3073
      3066      3064      3072      3074      3066      3064      3072      3075
      3066      3067      3069      3070      3066      3067      3069      3071
      3066      3067      3069      3081      3067      3066      3064      3072
      3067      3069      3081      3082      3067      3069      3081      3083
      3067      3069      3081      3084      3068      3067      3069      3070
      3068      3067      3069      3071      3068      3067      3069      3081
      3069      3081      3084      3085      3069      3081      3084      3086
      3069      3081      3084      3087      3070      3069      3081      3082
      3070      3069      3081      3083      3070      3069      3081      3084
      3071      3069      3081      3082      3071      3069      3081      3083
      3071      3069      3081      3084      3072      3075      3076      3077
      3072      3075      3076      3078      3073      3072      3075      3076
      3074      3072      3075      3076      3075      3076      3078      3079
      3075      3076      3078      3080      3075      3076      3078      3128
      3076      3078      3128      3129      3076      3078      3128      3130
      3076      3078      3128      3131      3077      3076      3078      3079
      3077      3076      3078      3080      3077      3076      3078      3128
      3078      3128      3131      3132      3078      3128      3131      3133
      3078      3128      3131      3134      3079      3078      3128      3129
      3079      3078      3128      3130      3079      3078      3128      3131
      3080      3078      3128      3129      3080      3078      3128      3130
      3080      3078      3128      3131      3081      3084      3087      3088
      3081      3084      3087      3089      3081      3084      3087      3090
      3082      3081      3084      3085      3082      3081      3084      3086
      3082      3081      3084      3087      3083      3081      3084      3085
      3083      3081      3084      3086      3083      3081      3084      3087
      3084      3087      3090      3091      3084      3087      3090      3092
      3084      3087      3090      3093      3085      3084      3087      3088
      3085      3084      3087      3089      3085      3084      3087      3090
      3086      3084      3087      3088      3086      3084      3087      3089
      3086      3084      3087      3090      3087      3090      3093      3094
      3087      3090      3093      3095      3087      3090      3093      3096
      3088      3087      3090      3091      3088      3087      3090      3092
      3088      3087      3090      3093      3089      3087      3090      3091
      3089      3087      3090      3092      3089      3087      3090      3093
      3090      3093      3096      3097      3090      3093      3096      3098
      3090      3093      3096      3099      3091      3090      3093      3094
      3091      3090      3093      3095      3091      3090      3093      3096
      3092      3090      3093      3094      3092      3090      3093      3095
      3092      3090      3093      3096      3093      3096      3099      3100
      3093      3096      3099      3101      3094      3093      3096      3097
      3094      3093      3096      3098      3094      3093      3096      3099
      3095      3093      3096      3097      3095      3093      3096      3098
      3095      3093      3096      3099      3096      3099      3101      3102
      3096      3099      3101      3103      3097      3096      3099      3100
      3097      3096      3099      3101      3098      3096      3099      3100
      3098      3096      3099      3101      3099      3101      3103      3104
      3099      3101      3103      3105      3099      3101      3103      3106
      3100      3099      3101      3102      3100      3099      3101      3103
      3101      3103      3106      3107      3101      3103      3106      3108
      3101      3103      3106      3109      3102      3101      3103      3104
      3102      3101      3103      3105      3102      3101      3103      3106
      3103      3106      3109      3110      3103      3106      3109      3111
      3103      3106      3109      3112      3104      3103      3106      3107
      3104      3103      3106      3108      3104      3103      3106      3109
      3105      3103      3106      3107      3105      3103      3106      3108
      3105      3103      3106      3109      3106      3109      3112      3113
      3106      3109      3112      3114      3106      3109      3112      3115
      3107      3106      3109      3110      3107      3106      3109      3111
      3107      3106      3109      3112      3108      3106      3109      3110
      3108      3106      3109      3111      3108      3106      3109      3112
      3109      3112      3115      3116      3109      3112      3115      3117
      3109      3112      3115      3118      3110      3109      3112      3113
      3110      3109      3112      3114      3110      3109      3112      3115
      3111      3109      3112      3113      3111      3109      3112      3114
      3111      3109      3112      3115      3112      3115      3118      3119
      3112      3115      3118      3120      3112      3115      3118      3121
      3113      3112      3115      3116      3113      3112      3115      3117
      3113      3112      3115      3118      3114      3112      3115      3116
      3114      3112      3115      3117      3114      3112      3115      3118
      3115      3118      3121      3122      3115      3118      3121      3123
      3115      3118      3121      3124      3116      3115      3118      3119
      3116      3115      3118      3120      3116      3115      3118      3121
      3117      3115      3118      3119      3117      3115      3118      3120
      3117      3115      3118      3121      3118      3121      3124      3125
      3118      3121      3124      3126      3118      3121      3124      3127
      3119      3118      3121      3122      3119      3118      3121      3123
      3119      3118      3121      3124      3120      3118      3121      3122
      3120      3118      3121      3123      3120      3118      3121      3124
      3122      3121      3124      3125      3122      3121      3124      3126
      3122      3121      3124      3127      3123      3121      3124      3125
      3123      3121      3124      3126      3123      3121      3124      3127
      3128      3131      3134      3135      3128      3131      3134      3136
      3128      3131      3134      3137      3129      3128      3131      3132
      3129      3128      3131      3133      3129      3128      3131      3134
      3130      3128      3131      3132      3130      3128      3131      3133
      3130      3128      3131      3134      3131      3134      3137      3138
      3131      3134      3137      3139      3131      3134      3137      3140
      3132      3131      3134      3135      3132      3131      3134      3136
      3132      3131      3134      3137      3133      3131      3134      3135
      3133      3131      3134      3136      3133      3131      3134      3137
      3134      3137      3140      3141      3134      3137      3140      3142
      3134      3137      3140      3143      3135      3134      3137      3138
      3135      3134      3137      3139      3135      3134      3137      3140
      3136      3134      3137      3138      3136      3134      3137      3139
      3136      3134      3137      3140      3137      3140      3143      3144
      3137      3140      3143      3145      3137      3140      3143      3146
      3138      3137      3140      3141      3138      3137      3140      3142
      3138      3137      3140      3143      3139      3137      3140      3141
      3139      3137      3140      3142      3139      3137      3140      3143
      3140      3143      3146      3147      3140      3143      3146      3148
      3141      3140      3143      3144      3141      3140      3143      3145
      3141      3140      3143      3146      3142      3140      3143      3144
      3142      3140      3143      3145      3142      3140      3143      3146
      3143      3146      3148      3149      3143      3146      3148      3150
      3144      3143      3146      3147      3144      3143      3146      3148
      3145      3143      3146      3147      3145      3143      3146      3148
      3146      3148      3150      3151      3146      3148      3150      3152
      3146      3148      3150      3153      3147      3146      3148      3149
      3147      3146      3148      3150      3148      3150      3153      3154
      3148      3150      3153      3155      3148      3150      3153      3156
      3149      3148      3150      3151      3149      3148      3150      3152
      3149      3148      3150      3153      3150      3153      3156      3157
      3150      3153      3156      3158      3150      3153      3156      3159
      3151      3150      3153      3154      3151      3150      3153      3155
      3151      3150      3153      3156      3152      3150      3153      3154
      3152      3150      3153      3155      3152      3150      3153      3156
      3153      3156      3159      3160      3153      3156      3159      3161
      3153      3156      3159      3162      3154      3153      3156      3157
      3154      3153      3156      3158      3154      3153      3156      3159
      3155      3153      3156      3157      3155      3153      3156      3158
      3155      3153      3156      3159      3156      3159      3162      3163
      3156      3159      3162      3164      3156      3159      3162      3165
      3157      3156      3159      3160      3157      3156      3159      3161
      3157      3156      3159      3162      3158      3156      3159      3160
      3158      3156      3159      3161      3158      3156      3159      3162
      3159      3162      3165      3166      3159      3162      3165      3167
      3159      3162      3165      3168      3160      3159      3162      3163
      3160      3159      3162      3164      3160      3159      3162      3165
      3161      3159      3162      3163      3161      3159      3162      3164
      3161      3159      3162      3165      3162      3165      3168      3169
      3162      3165      3168      3170      3162      3165      3168      3171
      3163      3162      3165      3166      3163      3162      3165      3167
      3163      3162      3165      3168      3164      3162      3165      3166
      3164      3162      3165      3167      3164      3162      3165      3168
      3165      3168      3171      3172      3165      3168      3171      3173
      3165      3168      3171      3174      3166      3165      3168      3169
      3166      3165      3168      3170      3166      3165      3168      3171
      3167      3165      3168      3169      3167      3165      3168      3170
      3167      3165      3168      3171      3169      3168      3171      3172
      3169      3168      3171      3173      3169      3168      3171      3174
      3170      3168      3171      3172      3170      3168      3171      3173
      3170      3168      3171      3174      3175      3176      3191      3192
      3175      3176      3191      3193      3175      3176      3191      3197
      3176      3175      3179      3180      3176      3175      3179      3181
      3176      3175      3179      3182      3176      3175      3183      3184
      3176      3175      3183      3185      3176      3175      3183      3186
      3176      3175      3187      3188      3176      3175      3187      3189
      3176      3175      3187      3190      3176      3191      3197      3194
      3177      3176      3175      3179      3177      3176      3175      3183
      3177      3176      3175      3187      3177      3176      3191      3192
      3177      3176      3191      3193      3177      3176      3191      3197
      3178      3176      3175      3179      3178      3176      3175      3183
      3178      3176      3175      3187      3178      3176      3191      3192
      3178      3176      3191      3193      3178      3176      3191      3197
      3179      3175      3176      3191      3179      3175      3183      3184
      3179      3175      3183      3185      3179      3175      3183      3186
      3179      3175      3187      3188      3179      3175      3187      3189
      3179      3175      3187      3190      3180      3179      3175      3183
      3180      3179      3175      3187      3181      3179      3175      3183
      3181      3179      3175      3187      3182      3179      3175      3183
      3182      3179      3175      3187      3183      3175      3176      3191
      3183      3175      3187      3188      3183      3175      3187      3189
      3183      3175      3187      3190      3184      3183      3175      3187
      3185      3183      3175      3187      3186      3183      3175      3187
      3187      3175      3176      3191      3191      3197      3194      3195
      3191      3197      3194      3196      3191      3197      3194      3198
      3192      3191      3197      3194      3193      3191      3197      3194
      3194      3198      3199      3200      3194      3198      3199      3201
      3194      3198      3199      3202      3195      3194      3198      3199
      3196      3194      3198      3199      3197      3194      3198      3199
      3198      3199      3202      3203      3198      3199      3202      3204
      3198      3199      3202      3210      3199      3202      3204      3205
      3199      3202      3210      3211      3199      3202      3210      3212
      3199      3202      3210      3213      3200      3199      3202      3203
      3200      3199      3202      3204      3200      3199      3202      3210
      3201      3199      3202      3203      3201      3199      3202      3204
      3201      3199      3202      3210      3202      3204      3205      3206
      3202      3204      3205      3207      3202      3210      3213      3214
      3203      3202      3204      3205      3203      3202      3210      3211
      3203      3202      3210      3212      3203      3202      3210      3213
      3204      3202      3210      3211      3204      3202      3210      3212
      3204      3202      3210      3213      3204      3205      3207      3208
      3204      3205      3207      3209      3204      3205      3207      3219
      3205      3204      3202      3210      3205      3207      3219      3220
      3205      3207      3219      3221      3205      3207      3219      3222
      3206      3205      3207      3208      3206      3205      3207      3209
      3206      3205      3207      3219      3207      3219      3222      3223
      3207      3219      3222      3224      3207      3219      3222      3225
      3208      3207      3219      3220      3208      3207      3219      3221
      3208      3207      3219      3222      3209      3207      3219      3220
      3209      3207      3219      3221      3209      3207      3219      3222
      3210      3213      3214      3215      3210      3213      3214      3216
      3211      3210      3213      3214      3212      3210      3213      3214
      3213      3214      3216      3217      3213      3214      3216      3218
      3213      3214      3216      3266      3214      3216      3266      3267
      3214      3216      3266      3268      3214      3216      3266      3269
      3215      3214      3216      3217      3215      3214      3216      3218
      3215      3214      3216      3266      3216      3266      3269      3270
      3216      3266      3269      3271      3216      3266      3269      3272
      3217      3216      3266      3267      3217      3216      3266      3268
      3217      3216      3266      3269      3218      3216      3266      3267
      3218      3216      3266      3268      3218      3216      3266      3269
      3219      3222      3225      3226      3219      3222      3225      3227
      3219      3222      3225      3228      3220      3219      3222      3223
      3220      3219      3222      3224      3220      3219      3222      3225
      3221      3219      3222      3223      3221      3219      3222      3224
      3221      3219      3222      3225      3222      3225      3228      3229
      3222      3225      3228      3230      3222      3225      3228      3231
      3223      3222      3225      3226      3223      3222      3225      3227
      3223      3222      3225      3228      3224      3222      3225      3226
      3224      3222      3225      3227      3224      3222      3225      3228
      3225      3228      3231      3232      3225      3228      3231      3233
      3225      3228      3231      3234      3226      3225      3228      3229
      3226      3225      3228      3230      3226      3225      3228      3231
      3227      3225      3228      3229      3227      3225      3228      3230
      3227      3225      3228      3231      3228      3231      3234      3235
      3228      3231      3234      3236      3228      3231      3234      3237
      3229      3228      3231      3232      3229      3228      3231      3233
      3229      3228      3231      3234      3230      3228      3231      3232
      3230      3228      3231      3233      3230      3228      3231      3234
      3231      3234      3237      3238      3231      3234      3237      3239
      3232      3231      3234      3235      3232      3231      3234      3236
      3232      3231      3234      3237      3233      3231      3234      3235
      3233      3231      3234      3236      3233      3231      3234      3237
      3234      3237      3239      3240      3234      3237      3239      3241
      3235      3234      3237      3238      3235      3234      3237      3239
      3236      3234      3237      3238      3236      3234      3237      3239
      3237      3239      3241      3242      3237      3239      3241      3243
      3237      3239      3241      3244      3238      3237      3239      3240
      3238      3237      3239      3241      3239      3241      3244      3245
      3239      3241      3244      3246      3239      3241      3244      3247
      3240      3239      3241      3242      3240      3239      3241      3243
      3240      3239      3241      3244      3241      3244      3247      3248
      3241      3244      3247      3249      3241      3244      3247      3250
      3242      3241      3244      3245      3242      3241      3244      3246
      3242      3241      3244      3247      3243      3241      3244      3245
      3243      3241      3244      3246      3243      3241      3244      3247
      3244      3247      3250      3251      3244      3247      3250      3252
      3244      3247      3250      3253      3245      3244      3247      3248
      3245      3244      3247      3249      3245      3244      3247      3250
      3246      3244      3247      3248      3246      3244      3247      3249
      3246      3244      3247      3250      3247      3250      3253      3254
      3247      3250      3253      3255      3247      3250      3253      3256
      3248      3247      3250      3251      3248      3247      3250      3252
      3248      3247      3250      3253      3249      3247      3250      3251
      3249      3247      3250      3252      3249      3247      3250      3253
      3250      3253      3256      3257      3250      3253      3256      3258
      3250      3253      3256      3259      3251      3250      3253      3254
      3251      3250      3253      3255      3251      3250      3253      3256
      3252      3250      3253      3254      3252      3250      3253      3255
      3252      3250      3253      3256      3253      3256      3259      3260
      3253      3256      3259      3261      3253      3256      3259      3262
      3254      3253      3256      3257      3254      3253      3256      3258
      3254      3253      3256      3259      3255      3253      3256      3257
      3255      3253      3256      3258      3255      3253      3256      3259
      3256      3259      3262      3263      3256      3259      3262      3264
      3256      3259      3262      3265      3257      3256      3259      3260
      3257      3256      3259      3261      3257      3256      3259      3262
      3258      3256      3259      3260      3258      3256      3259      3261
      3258      3256      3259      3262      3260      3259      3262      3263
      3260      3259      3262      3264      3260      3259      3262      3265
      3261      3259      3262      3263      3261      3259      3262      3264
      3261      3259      3262      3265      3266      3269      3272      3273
      3266      3269      3272      3274      3266      3269      3272      3275
      3267      3266      3269      3270      3267      3266      3269      3271
      3267      3266      3269      3272      3268      3266      3269      3270
      3268      3266      3269      3271      3268      3266      3269      3272
      3269      3272      3275      3276      3269      3272      3275      3277
      3269      3272      3275      3278      3270      3269      3272      3273
      3270      3269      3272      3274      3270      3269      3272      3275
      3271      3269      3272      3273      3271      3269      3272      3274
      3271      3269      3272      3275      3272      3275      3278      3279
      3272      3275      3278      3280      3272      3275      3278      3281
      3273      3272      3275      3276      3273      3272      3275      3277
      3273      3272      3275      3278      3274      3272      3275      3276
      3274      3272      3275      3277      3274      3272      3275      3278
      3275      3278      3281      3282      3275      3278      3281      3283
      3275      3278      3281      3284      3276      3275      3278      3279
      3276      3275      3278      3280      3276      3275      3278      3281
      3277      3275      3278      3279      3277      3275      3278      3280
      3277      3275      3278      3281      3278      3281      3284      3285
      3278      3281      3284      3286      3279      3278      3281      3282
      3279      3278      3281      3283      3279      3278      3281      3284
      3280      3278      3281      3282      3280      3278      3281      3283
      3280      3278      3281      3284      3281      3284      3286      3287
      3281      3284      3286      3288      3282      3281      3284      3285
      3282      3281      3284      3286      3283      3281      3284      3285
      3283      3281      3284      3286      3284      3286      3288      3289
      3284      3286      3288      3290      3284      3286      3288      3291
      3285      3284      3286      3287      3285      3284      3286      3288
      3286      3288      3291      3292      3286      3288      3291      3293
      3286      3288      3291      3294      3287      3286      3288      3289
      3287      3286      3288      3290      3287      3286      3288      3291
      3288      3291      3294      3295      3288      3291      3294      3296
      3288      3291      3294      3297      3289      3288      3291      3292
      3289      3288      3291      3293      3289      3288      3291      3294
      3290      3288      3291      3292      3290      3288      3291      3293
      3290      3288      3291      3294      3291      3294      3297      3298
      3291      3294      3297      3299      3291      3294      3297      3300
      3292      3291      3294      3295      3292      3291      3294      3296
      3292      3291      3294      3297      3293      3291      3294      3295
      3293      3291      3294      3296      3293      3291      3294      3297
      3294      3297      3300      3301      3294      3297      3300      3302
      3294      3297      3300      3303      3295      3294      3297      3298
      3295      3294      3297      3299      3295      3294      3297      3300
      3296      3294      3297      3298      3296      3294      3297      3299
      3296      3294      3297      3300      3297      3300      3303      3304
      3297      3300      3303      3305      3297      3300      3303      3306
      3298      3297      3300      3301      3298      3297      3300      3302
      3298      3297      3300      3303      3299      3297      3300      3301
      3299      3297      3300      3302      3299      3297      3300      3303
      3300      3303      3306      3307      3300      3303      3306      3308
      3300      3303      3306      3309      3301      3300      3303      3304
      3301      3300      3303      3305      3301      3300      3303      3306
      3302      3300      3303      3304      3302      3300      3303      3305
      3302      3300      3303      3306      3303      3306      3309      3310
      3303      3306      3309      3311      3303      3306      3309      3312
      3304      3303      3306      3307      3304      3303      3306      3308
      3304      3303      3306      3309      3305      3303      3306      3307
      3305      3303      3306      3308      3305      3303      3306      3309
      3307      3306      3309      3310      3307      3306      3309      3311
      3307      3306      3309      3312      3308      3306      3309      3310
      3308      3306      3309      3311      3308      3306      3309      3312
      3313      3314      3329      3330      3313      3314      3329      3331
      3313      3314      3329      3335      3314      3313      3317      3318
      3314      3313      3317      3319      3314      3313      3317      3320
      3314      3313      3321      3322      3314      3313      3321      3323
      3314      3313      3321      3324      3314      3313      3325      3326
      3314      3313      3325      3327      3314      3313      3325      3328
      3314      3329      3335      3332      3315      3314      3313      3317
      3315      3314      3313      3321      3315      3314      3313      3325
      3315      3314      3329      3330      3315      3314      3329      3331
      3315      3314      3329      3335      3316      3314      3313      3317
      3316      3314      3313      3321      3316      3314      3313      3325
      3316      3314      3329      3330      3316      3314      3329      3331
      3316      3314      3329      3335      3317      3313      3314      3329
      3317      3313      3321      3322      3317      3313      3321      3323
      3317      3313      3321      3324      3317      3313      3325      3326
      3317      3313      3325      3327      3317      3313      3325      3328
      3318      3317      3313      3321      3318      3317      3313      3325
      3319      3317      3313      3321      3319      3317      3313      3325
      3320      3317      3313      3321      3320      3317      3313      3325
      3321      3313      3314      3329      3321      3313      3325      3326
      3321      3313      3325      3327      3321      3313      3325      3328
      3322      3321      3313      3325      3323      3321      3313      3325
      3324      3321      3313      3325      3325      3313      3314      3329
      3329      3335      3332      3333      3329      3335      3332      3334
      3329      3335      3332      3336      3330      3329      3335      3332
      3331      3329      3335      3332      3332      3336      3337      3338
      3332      3336      3337      3339      3332      3336      3337      3340
      3333      3332      3336      3337      3334      3332      3336      3337
      3335      3332      3336      3337      3336      3337      3340      3341
      3336      3337      3340      3342      3336      3337      3340      3348
      3337      3340      3342      3343      3337      3340      3348      3349
      3337      3340      3348      3350      3337      3340      3348      3351
      3338      3337      3340      3341      3338      3337      3340      3342
      3338      3337      3340      3348      3339      3337      3340      3341
      3339      3337      3340      3342      3339      3337      3340      3348
      3340      3342      3343      3344      3340      3342      3343      3345
      3340      3348      3351      3352      3341      3340      3342      3343
      3341      3340      3348      3349      3341      3340      3348      3350
      3341      3340      3348      3351      3342      3340      3348      3349
      3342      3340      3348      3350      3342      3340      3348      3351
      3342      3343      3345      3346      3342      3343      3345      3347
      3342      3343      3345      3357      3343      3342      3340      3348
      3343      3345      3357      3358      3343      3345      3357      3359
      3343      3345      3357      3360      3344      3343      3345      3346
      3344      3343      3345      3347      3344      3343      3345      3357
      3345      3357      3360      3361      3345      3357      3360      3362
      3345      3357      3360      3363      3346      3345      3357      3358
      3346      3345      3357      3359      3346      3345      3357      3360
      3347      3345      3357      3358      3347      3345      3357      3359
      3347      3345      3357      3360      3348      3351      3352      3353
      3348      3351      3352      3354      3349      3348      3351      3352
      3350      3348      3351      3352      3351      3352      3354      3355
      3351      3352      3354      3356      3351      3352      3354      3404
      3352      3354      3404      3405      3352      3354      3404      3406
      3352      3354      3404      3407      3353      3352      3354      3355
      3353      3352      3354      3356      3353      3352      3354      3404
      3354      3404      3407      3408      3354      3404      3407      3409
      3354      3404      3407      3410      3355      3354      3404      3405
      3355      3354      3404      3406      3355      3354      3404      3407
      3356      3354      3404      3405      3356      3354      3404      3406
      3356      3354      3404      3407      3357      3360      3363      3364
      3357      3360      3363      3365      3357      3360      3363      3366
      3358      3357      3360      3361      3358      3357      3360      3362
      3358      3357      3360      3363      3359      3357      3360      3361
      3359      3357      3360      3362      3359      3357      3360      3363
      3360      3363      3366      3367      3360      3363      3366      3368
      3360      3363      3366      3369      3361      3360      3363      3364
      3361      3360      3363      3365      3361      3360      3363      3366
      3362      3360      3363      3364      3362      3360      3363      3365
      3362      3360      3363      3366      3363      3366      3369      3370
      3363      3366      3369      3371      3363      3366      3369      3372
      3364      3363      3366      3367      3364      3363      3366      3368
      3364      3363      3366      3369      3365      3363      3366      3367
      3365      3363      3366      3368      3365      3363      3366      3369
      3366      3369      3372      3373      3366      3369      3372      3374
      3366      3369      3372      3375      3367      3366      3369      3370
      3367      3366      3369      3371      3367      3366      3369      3372
      3368      3366      3369      3370      3368      3366      3369      3371
      3368      3366      3369      3372      3369      3372      3375      3376
      3369      3372      3375      3377      3370      3369      3372      3373
      3370      3369      3372      3374      3370      3369      3372      3375
      3371      3369      3372      3373      3371      3369      3372      3374
      3371      3369      3372      3375      3372      3375      3377      3378
      3372      3375      3377      3379      3373      3372      3375      3376
      3373      3372      3375      3377      3374      3372      3375      3376
      3374      3372      3375      3377      3375      3377      3379      3380
      3375      3377      3379      3381      3375      3377      3379      3382
      3376      3375      3377      3378      3376      3375      3377      3379
      3377      3379      3382      3383      3377      3379      3382      3384
      3377      3379      3382      3385      3378      3377      3379      3380
      3378      3377      3379      3381      3378      3377      3379      3382
      3379      3382      3385      3386      3379      3382      3385      3387
      3379      3382      3385      3388      3380      3379      3382      3383
      3380      3379      3382      3384      3380      3379      3382      3385
      3381      3379      3382      3383      3381      3379      3382      3384
      3381      3379      3382      3385      3382      3385      3388      3389
      3382      3385      3388      3390      3382      3385      3388      3391
      3383      3382      3385      3386      3383      3382      3385      3387
      3383      3382      3385      3388      3384      3382      3385      3386
      3384      3382      3385      3387      3384      3382      3385      3388
      3385      3388      3391      3392      3385      3388      3391      3393
      3385      3388      3391      3394      3386      3385      3388      3389
      3386      3385      3388      3390      3386      3385      3388      3391
      3387      3385      3388      3389      3387      3385      3388      3390
      3387      3385      3388      3391      3388      3391      3394      3395
      3388      3391      3394      3396      3388      3391      3394      3397
      3389      3388      3391      3392      3389      3388      3391      3393
      3389      3388      3391      3394      3390      3388      3391      3392
      3390      3388      3391      3393      3390      3388      3391      3394
      3391      3394      3397      3398      3391      3394      3397      3399
      3391      3394      3397      3400      3392      3391      3394      3395
      3392      3391      3394      3396      3392      3391      3394      3397
      3393      3391      3394      3395      3393      3391      3394      3396
      3393      3391      3394      3397      3394      3397      3400      3401
      3394      3397      3400      3402      3394      3397      3400      3403
      3395      3394      3397      3398      3395      3394      3397      3399
      3395      3394      3397      3400      3396      3394      3397      3398
      3396      3394      3397      3399      3396      3394      3397      3400
      3398      3397      3400      3401      3398      3397      3400      3402
      3398      3397      3400      3403      3399      3397      3400      3401
      3399      3397      3400      3402      3399      3397      3400      3403
      3404      3407      3410      3411      3404      3407      3410      3412
      3404      3407      3410      3413      3405      3404      3407      3408
      3405      3404      3407      3409      3405      3404      3407      3410
      3406      3404      3407      3408      3406      3404      3407      3409
      3406      3404      3407      3410      3407      3410      3413      3414
      3407      3410      3413      3415      3407      3410      3413      3416
      3408      3407      3410      3411      3408      3407      3410      3412
      3408      3407      3410      3413      3409      3407      3410      3411
      3409      3407      3410      3412      3409      3407      3410      3413
      3410      3413      3416      3417      3410      3413      3416      3418
      3410      3413      3416      3419      3411      3410      3413      3414
      3411      3410      3413      3415      3411      3410      3413      3416
      3412      3410      3413      3414      3412      3410      3413      3415
      3412      3410      3413      3416      3413      3416      3419      3420
      3413      3416      3419      3421      3413      3416      3419      3422
      3414      3413      3416      3417      3414      3413      3416      3418
      3414      3413      3416      3419      3415      3413      3416      3417
      3415      3413      3416      3418      3415      3413      3416      3419
      3416      3419      3422      3423      3416      3419      3422      3424
      3417      3416      3419      3420      3417      3416      3419      3421
      3417      3416      3419      3422      3418      3416      3419      3420
      3418      3416      3419      3421      3418      3416      3419      3422
      3419      3422      3424      3425      3419      3422      3424      3426
      3420      3419      3422      3423      3420      3419      3422      3424
      3421      3419      3422      3423      3421      3419      3422      3424
      3422      3424      3426      3427      3422      3424      3426      3428
      3422      3424      3426      3429      3423      3422      3424      3425
      3423      3422      3424      3426      3424      3426      3429      3430
      3424      3426      3429      3431      3424      3426      3429      3432
      3425      3424      3426      3427      3425      3424      3426      3428
      3425      3424      3426      3429      3426      3429      3432      3433
      3426      3429      3432      3434      3426      3429      3432      3435
      3427      3426      3429      3430      3427      3426      3429      3431
      3427      3426      3429      3432      3428      3426      3429      3430
      3428      3426      3429      3431      3428      3426      3429      3432
      3429      3432      3435      3436      3429      3432      3435      3437
      3429      3432      3435      3438      3430      3429      3432      3433
      3430      3429      3432      3434      3430      3429      3432      3435
      3431      3429      3432      3433      3431      3429      3432      3434
      3431      3429      3432      3435      3432      3435      3438      3439
      3432      3435      3438      3440      3432      3435      3438      3441
      3433      3432      3435      3436      3433      3432      3435      3437
      3433      3432      3435      3438      3434      3432      3435      3436
      3434      3432      3435      3437      3434      3432      3435      3438
      3435      3438      3441      3442      3435      3438      3441      3443
      3435      3438      3441      3444      3436      3435      3438      3439
      3436      3435      3438      3440      3436      3435      3438      3441
      3437      3435      3438      3439      3437      3435      3438      3440
      3437      3435      3438      3441      3438      3441      3444      3445
      3438      3441      3444      3446      3438      3441      3444      3447
      3439      3438      3441      3442      3439      3438      3441      3443
      3439      3438      3441      3444      3440      3438      3441      3442
      3440      3438      3441      3443      3440      3438      3441      3444
      3441      3444      3447      3448      3441      3444      3447      3449
      3441      3444      3447      3450      3442      3441      3444      3445
      3442      3441      3444      3446      3442      3441      3444      3447
      3443      3441      3444      3445      3443      3441      3444      3446
      3443      3441      3444      3447      3445      3444      3447      3448
      3445      3444      3447      3449      3445      3444      3447      3450
      3446      3444      3447      3448      3446      3444      3447      3449
      3446      3444      3447      3450      3451      3452      3467      3468
      3451      3452      3467      3469      3451      3452      3467      3473
      3452      3451      3455      3456      3452      3451      3455      3457
      3452      3451      3455      3458      3452      3451      3459      3460
      3452      3451      3459      3461      3452      3451      3459      3462
      3452      3451      3463      3464      3452      3451      3463      3465
      3452      3451      3463      3466      3452      3467      3473      3470
      3453      3452      3451      3455      3453      3452      3451      3459
      3453      3452      3451      3463      3453      3452      3467      3468
      3453      3452      3467      3469      3453      3452      3467      3473
      3454      3452      3451      3455      3454      3452      3451      3459
      3454      3452      3451      3463      3454      3452      3467      3468
      3454      3452      3467      3469      3454      3452      3467      3473
      3455      3451      3452      3467      3455      3451      3459      3460
      3455      3451      3459      3461      3455      3451      3459      3462
      3455      3451      3463      3464      3455      3451      3463      3465
      3455      3451      3463      3466      3456      3455      3451      3459
      3456      3455      3451      3463      3457      3455      3451      3459
      3457      3455      3451      3463      3458      3455      3451      3459
      3458      3455      3451      3463      3459      3451      3452      3467
      3459      3451      3463      3464      3459      3451      3463      3465
      3459      3451      3463      3466      3460      3459      3451      3463
      3461      3459      3451      3463      3462      3459      3451      3463
      3463      3451      3452      3467      3467      3473      3470      3471
      3467      3473      3470      3472      3467      3473      3470      3474
      3468      3467      3473      3470      3469      3467      3473      3470
      3470      3474      3475      3476      3470      3474      3475      3477
      3470      3474      3475      3478      3471      3470      3474      3475
      3472      3470      3474      3475      3473      3470      3474      3475
      3474      3475      3478      3479      3474      3475      3478      3480
      3474      3475      3478      3486      3475      3478      3480      3481
      3475      3478      3486      3487      3475      3478      3486      3488
      3475      3478      3486      3489      3476      3475      3478      3479
      3476      3475      3478      3480      3476      3475      3478      3486
      3477      3475      3478      3479      3477      3475      3478      3480
      3477      3475      3478      3486      3478      3480      3481      3482
      3478      3480      3481      3483      3478      3486      3489      3490
      3479      3478      3480      3481      3479      3478      3486      3487
      3479      3478      3486      3488      3479      3478      3486      3489
      3480      3478      3486      3487      3480      3478      3486      3488
      3480      3478      3486      3489      3480      3481      3483      3484
      3480      3481      3483      3485      3480      3481      3483      3495
      3481      3480      3478      3486      3481      3483      3495      3496
      3481      3483      3495      3497      3481      3483      3495      3498
      3482      3481      3483      3484      3482      3481      3483      3485
      3482      3481      3483      3495      3483      3495      3498      3499
      3483      3495      3498      3500      3483      3495      3498      3501
      3484      3483      3495      3496      3484      3483      3495      3497
      3484      3483      3495      3498      3485      3483      3495      3496
      3485      3483      3495      3497      3485      3483      3495      3498
      3486      3489      3490      3491      3486      3489      3490      3492
      3487      3486      3489      3490      3488      3486      3489      3490
      3489      3490      3492      3493      3489      3490      3492      3494
      3489      3490      3492      3542      3490      3492      3542      3543
      3490      3492      3542      3544      3490      3492      3542      3545
      3491      3490      3492      3493      3491      3490      3492      3494
      3491      3490      3492      3542      3492      3542      3545      3546
      3492      3542      3545      3547      3492      3542      3545      3548
      3493      3492      3542      3543      3493      3492      3542      3544
      3493      3492      3542      3545      3494      3492      3542      3543
      3494      3492      3542      3544      3494      3492      3542      3545
      3495      3498      3501      3502      3495      3498      3501      3503
      3495      3498      3501      3504      3496      3495      3498      3499
      3496      3495      3498      3500      3496      3495      3498      3501
      3497      3495      3498      3499      3497      3495      3498      3500
      3497      3495      3498      3501      3498      3501      3504      3505
      3498      3501      3504      3506      3498      3501      3504      3507
      3499      3498      3501      3502      3499      3498      3501      3503
      3499      3498      3501      3504      3500      3498      3501      3502
      3500      3498      3501      3503      3500      3498      3501      3504
      3501      3504      3507      3508      3501      3504      3507      3509
      3501      3504      3507      3510      3502      3501      3504      3505
      3502      3501      3504      3506      3502      3501      3504      3507
      3503      3501      3504      3505      3503      3501      3504      3506
      3503      3501      3504      3507      3504      3507      3510      3511
      3504      3507      3510      3512      3504      3507      3510      3513
      3505      3504      3507      3508      3505      3504      3507      3509
      3505      3504      3507      3510      3506      3504      3507      3508
      3506      3504      3507      3509      3506      3504      3507      3510
      3507      3510      3513      3514      3507      3510      3513      3515
      3508      3507      3510      3511      3508      3507      3510      3512
      3508      3507      3510      3513      3509      3507      3510      3511
      3509      3507      3510      3512      3509      3507      3510      3513
      3510      3513      3515      3516      3510      3513      3515      3517
      3511      3510      3513      3514      3511      3510      3513      3515
      3512      3510      3513      3514      3512      3510      3513      3515
      3513      3515      3517      3518      3513      3515      3517      3519
      3513      3515      3517      3520      3514      3513      3515      3516
      3514      3513      3515      3517      3515      3517      3520      3521
      3515      3517      3520      3522      3515      3517      3520      3523
      3516      3515      3517      3518      3516      3515      3517      3519
      3516      3515      3517      3520      3517      3520      3523      3524
      3517      3520      3523      3525      3517      3520      3523      3526
      3518      3517      3520      3521      3518      3517      3520      3522
      3518      3517      3520      3523      3519      3517      3520      3521
      3519      3517      3520      3522      3519      3517      3520      3523
      3520      3523      3526      3527      3520      3523      3526      3528
      3520      3523      3526      3529      3521      3520      3523      3524
      3521      3520      3523      3525      3521      3520      3523      3526
      3522      3520      3523      3524      3522      3520      3523      3525
      3522      3520      3523      3526      3523      3526      3529      3530
      3523      3526      3529      3531      3523      3526      3529      3532
      3524      3523      3526      3527      3524      3523      3526      3528
      3524      3523      3526      3529      3525      3523      3526      3527
      3525      3523      3526      3528      3525      3523      3526      3529
      3526      3529      3532      3533      3526      3529      3532      3534
      3526      3529      3532      3535      3527      3526      3529      3530
      3527      3526      3529      3531      3527      3526      3529      3532
      3528      3526      3529      3530      3528      3526      3529      3531
      3528      3526      3529      3532      3529      3532      3535      3536
      3529      3532      3535      3537      3529      3532      3535      3538
      3530      3529      3532      3533      3530      3529      3532      3534
      3530      3529      3532      3535      3531      3529      3532      3533
      3531      3529      3532      3534      3531      3529      3532      3535
      3532      3535      3538      3539      3532      3535      3538      3540
      3532      3535      3538      3541      3533      3532      3535      3536
      3533      3532      3535      3537      3533      3532      3535      3538
      3534      3532      3535      3536      3534      3532      3535      3537
      3534      3532      3535      3538      3536      3535      3538      3539
      3536      3535      3538      3540      3536      3535      3538      3541
      3537      3535      3538      3539      3537      3535      3538      3540
      3537      3535      3538      3541      3542      3545      3548      3549
      3542      3545      3548      3550      3542      3545      3548      3551
      3543      3542      3545      3546      3543      3542      3545      3547
      3543      3542      3545      3548      3544      3542      3545      3546
      3544      3542      3545      3547      3544      3542      3545      3548
      3545      3548      3551      3552      3545      3548      3551      3553
      3545      3548      3551      3554      3546      3545      3548      3549
      3546      3545      3548      3550      3546      3545      3548      3551
      3547      3545      3548      3549      3547      3545      3548      3550
      3547      3545      3548      3551      3548      3551      3554      3555
      3548      3551      3554      3556      3548      3551      3554      3557
      3549      3548      3551      3552      3549      3548      3551      3553
      3549      3548      3551      3554      3550      3548      3551      3552
      3550      3548      3551      3553      3550      3548      3551      3554
      3551      3554      3557      3558      3551      3554      3557      3559
      3551      3554      3557      3560      3552      3551      3554      3555
      3552      3551      3554      3556      3552      3551      3554      3557
      3553      3551      3554      3555      3553      3551      3554      3556
      3553      3551      3554      3557      3554      3557      3560      3561
      3554      3557      3560      3562      3555      3554      3557      3558
      3555      3554      3557      3559      3555      3554      3557      3560
      3556      3554      3557      3558      3556      3554      3557      3559
      3556      3554      3557      3560      3557      3560      3562      3563
      3557      3560      3562      3564      3558      3557      3560      3561
      3558      3557      3560      3562      3559      3557      3560      3561
      3559      3557      3560      3562      3560      3562      3564      3565
      3560      3562      3564      3566      3560      3562      3564      3567
      3561      3560      3562      3563      3561      3560      3562      3564
      3562      3564      3567      3568      3562      3564      3567      3569
      3562      3564      3567      3570      3563      3562      3564      3565
      3563      3562      3564      3566      3563      3562      3564      3567
      3564      3567      3570      3571      3564      3567      3570      3572
      3564      3567      3570      3573      3565      3564      3567      3568
      3565      3564      3567      3569      3565      3564      3567      3570
      3566      3564      3567      3568      3566      3564      3567      3569
      3566      3564      3567      3570      3567      3570      3573      3574
      3567      3570      3573      3575      3567      3570      3573      3576
      3568      3567      3570      3571      3568      3567      3570      3572
      3568      3567      3570      3573      3569      3567      3570      3571
      3569      3567      3570      3572      3569      3567      3570      3573
      3570      3573      3576      3577      3570      3573      3576      3578
      3570      3573      3576      3579      3571      3570      3573      3574
      3571      3570      3573      3575      3571      3570      3573      3576
      3572      3570      3573      3574      3572      3570      3573      3575
      3572      3570      3573      3576      3573      3576      3579      3580
      3573      3576      3579      3581      3573      3576      3579      3582
      3574      3573      3576      3577      3574      3573      3576      3578
      3574      3573      3576      3579      3575      3573      3576      3577
      3575      3573      3576      3578      3575      3573      3576      3579
      3576      3579      3582      3583      3576      3579      3582      3584
      3576      3579      3582      3585      3577      3576      3579      3580
      3577      3576      3579      3581      3577      3576      3579      3582
      3578      3576      3579      3580      3578      3576      3579      3581
      3578      3576      3579      3582      3579      3582      3585      3586
      3579      3582      3585      3587      3579      3582      3585      3588
      3580      3579      3582      3583      3580      3579      3582      3584
      3580      3579      3582      3585      3581      3579      3582      3583
      3581      3579      3582      3584      3581      3579      3582      3585
      3583      3582      3585      3586      3583      3582      3585      3587
      3583      3582      3585      3588      3584      3582      3585      3586
      3584      3582      3585      3587      3584      3582      3585      3588
      3589      3590      3605      3606      3589      3590      3605      3607
      3589      3590      3605      3611      3590      3589      3593      3594
      3590      3589      3593      3595      3590      3589      3593      3596
      3590      3589      3597      3598      3590      3589      3597      3599
      3590      3589      3597      3600      3590      3589      3601      3602
      3590      3589      3601      3603      3590      3589      3601      3604
      3590      3605      3611      3608      3591      3590      3589      3593
      3591      3590      3589      3597      3591      3590      3589      3601
      3591      3590      3605      3606      3591      3590      3605      3607
      3591      3590      3605      3611      3592      3590      3589      3593
      3592      3590      3589      3597      3592      3590      3589      3601
      3592      3590      3605      3606      3592      3590      3605      3607
      3592      3590      3605      3611      3593      3589      3590      3605
      3593      3589      3597      3598      3593      3589      3597      3599
      3593      3589      3597      3600      3593      3589      3601      3602
      3593      3589      3601      3603      3593      3589      3601      3604
      3594      3593      3589      3597      3594      3593      3589      3601
      3595      3593      3589      3597      3595      3593      3589      3601
      3596      3593      3589      3597      3596      3593      3589      3601
      3597      3589      3590      3605      3597      3589      3601      3602
      3597      3589      3601      3603      3597      3589      3601      3604
      3598      3597      3589      3601      3599      3597      3589      3601
      3600      3597      3589      3601      3601      3589      3590      3605
      3605      3611      3608      3609      3605      3611      3608      3610
      3605      3611      3608      3612      3606      3605      3611      3608
      3607      3605      3611      3608      3608      3612      3613      3614
      3608      3612      3613      3615      3608      3612      3613      3616
      3609      3608      3612      3613      3610      3608      3612      3613
      3611      3608      3612      3613      3612      3613      3616      3617
      3612      3613      3616      3618      3612      3613      3616      3624
      3613      3616      3618      3619      3613      3616      3624      3625
      3613      3616      3624      3626      3613      3616      3624      3627
      3614      3613      3616      3617      3614      3613      3616      3618
      3614      3613      3616      3624      3615      3613      3616      3617
      3615      3613      3616      3618      3615      3613      3616      3624
      3616      3618      3619      3620      3616      3618      3619      3621
      3616      3624      3627      3628      3617      3616      3618      3619
      3617      3616      3624      3625      3617      3616      3624      3626
      3617      3616      3624      3627      3618      3616      3624      3625
      3618      3616      3624      3626      3618      3616      3624      3627
      3618      3619      3621      3622      3618      3619      3621      3623
      3618      3619      3621      3633      3619      3618      3616      3624
      3619      3621      3633      3634      3619      3621      3633      3635
      3619      3621      3633      3636      3620      3619      3621      3622
      3620      3619      3621      3623      3620      3619      3621      3633
      3621      3633      3636      3637      3621      3633      3636      3638
      3621      3633      3636      3639      3622      3621      3633      3634
      3622      3621      3633      3635      3622      3621      3633      3636
      3623      3621      3633      3634      3623      3621      3633      3635
      3623      3621      3633      3636      3624      3627      3628      3629
      3624      3627      3628      3630      3625      3624      3627      3628
      3626      3624      3627      3628      3627      3628      3630      3631
      3627      3628      3630      3632      3627      3628      3630      3680
      3628      3630      3680      3681      3628      3630      3680      3682
      3628      3630      3680      3683      3629      3628      3630      3631
      3629      3628      3630      3632      3629      3628      3630      3680
      3630      3680      3683      3684      3630      3680      3683      3685
      3630      3680      3683      3686      3631      3630      3680      3681
      3631      3630      3680      3682      3631      3630      3680      3683
      3632      3630      3680      3681      3632      3630      3680      3682
      3632      3630      3680      3683      3633      3636      3639      3640
      3633      3636      3639      3641      3633      3636      3639      3642
      3634      3633      3636      3637      3634      3633      3636      3638
      3634      3633      3636      3639      3635      3633      3636      3637
      3635      3633      3636      3638      3635      3633      3636      3639
      3636      3639      3642      3643      3636      3639      3642      3644
      3636      3639      3642      3645      3637      3636      3639      3640
      3637      3636      3639      3641      3637      3636      3639      3642
      3638      3636      3639      3640      3638      3636      3639      3641
      3638      3636      3639      3642      3639      3642      3645      3646
      3639      3642      3645      3647      3639      3642      3645      3648
      3640      3639      3642      3643      3640      3639      3642      3644
      3640      3639      3642      3645      3641      3639      3642      3643
      3641      3639      3642      3644      3641      3639      3642      3645
      3642      3645      3648      3649      3642      3645      3648      3650
      3642      3645      3648      3651      3643      3642      3645      3646
      3643      3642      3645      3647      3643      3642      3645      3648
      3644      3642      3645      3646      3644      3642      3645      3647
      3644      3642      3645      3648      3645      3648      3651      3652
      3645      3648      3651      3653      3646      3645      3648      3649
      3646      3645      3648      3650      3646      3645      3648      3651
      3647      3645      3648      3649      3647      3645      3648      3650
      3647      3645      3648      3651      3648      3651      3653      3654
      3648      3651      3653      3655      3649      3648      3651      3652
      3649      3648      3651      3653      3650      3648      3651      3652
      3650      3648      3651      3653      3651      3653      3655      3656
      3651      3653      3655      3657      3651      3653      3655      3658
      3652      3651      3653      3654      3652      3651      3653      3655
      3653      3655      3658      3659      3653      3655      3658      3660
      3653      3655      3658      3661      3654      3653      3655      3656
      3654      3653      3655      3657      3654      3653      3655      3658
      3655      3658      3661      3662      3655      3658      3661      3663
      3655      3658      3661      3664      3656      3655      3658      3659
      3656      3655      3658      3660      3656      3655      3658      3661
      3657      3655      3658      3659      3657      3655      3658      3660
      3657      3655      3658      3661      3658      3661      3664      3665
      3658      3661      3664      3666      3658      3661      3664      3667
      3659      3658      3661      3662      3659      3658      3661      3663
      3659      3658      3661      3664      3660      3658      3661      3662
      3660      3658      3661      3663      3660      3658      3661      3664
      3661      3664      3667      3668      3661      3664      3667      3669
      3661      3664      3667      3670      3662      3661      3664      3665
      3662      3661      3664      3666      3662      3661      3664      3667
      3663      3661      3664      3665      3663      3661      3664      3666
      3663      3661      3664      3667      3664      3667      3670      3671
      3664      3667      3670      3672      3664      3667      3670      3673
      3665      3664      3667      3668      3665      3664      3667      3669
      3665      3664      3667      3670      3666      3664      3667      3668
      3666      3664      3667      3669      3666      3664      3667      3670
      3667      3670      3673      3674      3667      3670      3673      3675
      3667      3670      3673      3676      3668      3667      3670      3671
      3668      3667      3670      3672      3668      3667      3670      3673
      3669      3667      3670      3671      3669      3667      3670      3672
      3669      3667      3670      3673      3670      3673      3676      3677
      3670      3673      3676      3678      3670      3673      3676      3679
      3671      3670      3673      3674      3671      3670      3673      3675
      3671      3670      3673      3676      3672      3670      3673      3674
      3672      3670      3673      3675      3672      3670      3673      3676
      3674      3673      3676      3677      3674      3673      3676      3678
      3674      3673      3676      3679      3675      3673      3676      3677
      3675      3673      3676      3678      3675      3673      3676      3679
      3680      3683      3686      3687      3680      3683      3686      3688
      3680      3683      3686      3689      3681      3680      3683      3684
      3681      3680      3683      3685      3681      3680      3683      3686
      3682      3680      3683      3684      3682      3680      3683      3685
      3682      3680      3683      3686      3683      3686      3689      3690
      3683      3686      3689      3691      3683      3686      3689      3692
      3684      3683      3686      3687      3684      3683      3686      3688
      3684      3683      3686      3689      3685      3683      3686      3687
      3685      3683      3686      3688      3685      3683      3686      3689
      3686      3689      3692      3693      3686      3689      3692      3694
      3686      3689      3692      3695      3687      3686      3689      3690
      3687      3686      3689      3691      3687      3686      3689      3692
      3688      3686      3689      3690      3688      3686      3689      3691
      3688      3686      3689      3692      3689      3692      3695      3696
      3689      3692      3695      3697      3689      3692      3695      3698
      3690      3689      3692      3693      3690      3689      3692      3694
      3690      3689      3692      3695      3691      3689      3692      3693
      3691      3689      3692      3694      3691      3689      3692      3695
      3692      3695      3698      3699      3692      3695      3698      3700
      3693      3692      3695      3696      3693      3692      3695      3697
      3693      3692      3695      3698      3694      3692      3695      3696
      3694      3692      3695      3697      3694      3692      3695      3698
      3695      3698      3700      3701      3695      3698      3700      3702
      3696      3695      3698      3699      3696      3695      3698      3700
      3697      3695      3698      3699      3697      3695      3698      3700
      3698      3700      3702      3703      3698      3700      3702      3704
      3698      3700      3702      3705      3699      3698      3700      3701
      3699      3698      3700      3702      3700      3702      3705      3706
      3700      3702      3705      3707      3700      3702      3705      3708
      3701      3700      3702      3703      3701      3700      3702      3704
      3701      3700      3702      3705      3702      3705      3708      3709
      3702      3705      3708      3710      3702      3705      3708      3711
      3703      3702      3705      3706      3703      3702      3705      3707
      3703      3702      3705      3708      3704      3702      3705      3706
      3704      3702      3705      3707      3704      3702      3705      3708
      3705      3708      3711      3712      3705      3708      3711      3713
      3705      3708      3711      3714      3706      3705      3708      3709
      3706      3705      3708      3710      3706      3705      3708      3711
      3707      3705      3708      3709      3707      3705      3708      3710
      3707      3705      3708      3711      3708      3711      3714      3715
      3708      3711      3714      3716      3708      3711      3714      3717
      3709      3708      3711      3712      3709      3708      3711      3713
      3709      3708      3711      3714      3710      3708      3711      3712
      3710      3708      3711      3713      3710      3708      3711      3714
      3711      3714      3717      3718      3711      3714      3717      3719
      3711      3714      3717      3720      3712      3711      3714      3715
      3712      3711      3714      3716      3712      3711      3714      3717
      3713      3711      3714      3715      3713      3711      3714      3716
      3713      3711      3714      3717      3714      3717      3720      3721
      3714      3717      3720      3722      3714      3717      3720      3723
      3715      3714      3717      3718      3715      3714      3717      3719
      3715      3714      3717      3720      3716      3714      3717      3718
      3716      3714      3717      3719      3716      3714      3717      3720
      3717      3720      3723      3724      3717      3720      3723      3725
      3717      3720      3723      3726      3718      3717      3720      3721
      3718      3717      3720      3722      3718      3717      3720      3723
      3719      3717      3720      3721      3719      3717      3720      3722
      3719      3717      3720      3723      3721      3720      3723      3724
      3721      3720      3723      3725      3721      3720      3723      3726
      3722      3720      3723      3724      3722      3720      3723      3725
      3722      3720      3723      3726      3727      3728      3743      3744
      3727      3728      3743      3745      3727      3728      3743      3749
      3728      3727      3731      3732      3728      3727      3731      3733
      3728      3727      3731      3734      3728      3727      3735      3736
      3728      3727      3735      3737      3728      3727      3735      3738
      3728      3727      3739      3740      3728      3727      3739      3741
      3728      3727      3739      3742      3728      3743      3749      3746
      3729      3728      3727      3731      3729      3728      3727      3735
      3729      3728      3727      3739      3729      3728      3743      3744
      3729      3728      3743      3745      3729      3728      3743      3749
      3730      3728      3727      3731      3730      3728      3727      3735
      3730      3728      3727      3739      3730      3728      3743      3744
      3730      3728      3743      3745      3730      3728      3743      3749
      3731      3727      3728      3743      3731      3727      3735      3736
      3731      3727      3735      3737      3731      3727      3735      3738
      3731      3727      3739      3740      3731      3727      3739      3741
      3731      3727      3739      3742      3732      3731      3727      3735
      3732      3731      3727      3739      3733      3731      3727      3735
      3733      3731      3727      3739      3734      3731      3727      3735
      3734      3731      3727      3739      3735      3727      3728      3743
      3735      3727      3739      3740      3735      3727      3739      3741
      3735      3727      3739      3742      3736      3735      3727      3739
      3737      3735      3727      3739      3738      3735      3727      3739
      3739      3727      3728      3743      3743      3749      3746      3747
      3743      3749      3746      3748      3743      3749      3746      3750
      3744      3743      3749      3746      3745      3743      3749      3746
      3746      3750      3751      3752      3746      3750      3751      3753
      3746      3750      3751      3754      3747      3746      3750      3751
      3748      3746      3750      3751      3749      3746      3750      3751
      3750      3751      3754      3755      3750      3751      3754      3756
      3750      3751      3754      3762      3751      3754      3756      3757
      3751      3754      3762      3763      3751      3754      3762      3764
      3751      3754      3762      3765      3752      3751      3754      3755
      3752      3751      3754      3756      3752      3751      3754      3762
      3753      3751      3754      3755      3753      3751      3754      3756
      3753      3751      3754      3762      3754      3756      3757      3758
      3754      3756      3757      3759      3754      3762      3765      3766
      3755      3754      3756      3757      3755      3754      3762      3763
      3755      3754      3762      3764      3755      3754      3762      3765
      3756      3754      3762      3763      3756      3754      3762      3764
      3756      3754      3762      3765      3756      3757      3759      3760
      3756      3757      3759      3761      3756      3757      3759      3771
      3757      3756      3754      3762      3757      3759      3771      3772
      3757      3759      3771      3773      3757      3759      3771      3774
      3758      3757      3759      3760      3758      3757      3759      3761
      3758      3757      3759      3771      3759      3771      3774      3775
      3759      3771      3774      3776      3759      3771      3774      3777
      3760      3759      3771      3772      3760      3759      3771      3773
      3760      3759      3771      3774      3761      3759      3771      3772
      3761      3759      3771      3773      3761      3759      3771      3774
      3762      3765      3766      3767      3762      3765      3766      3768
      3763      3762      3765      3766      3764      3762      3765      3766
      3765      3766      3768      3769      3765      3766      3768      3770
      3765      3766      3768      3818      3766      3768      3818      3819
      3766      3768      3818      3820      3766      3768      3818      3821
      3767      3766      3768      3769      3767      3766      3768      3770
      3767      3766      3768      3818      3768      3818      3821      3822
      3768      3818      3821      3823      3768      3818      3821      3824
      3769      3768      3818      3819      3769      3768      3818      3820
      3769      3768      3818      3821      3770      3768      3818      3819
      3770      3768      3818      3820      3770      3768      3818      3821
      3771      3774      3777      3778      3771      3774      3777      3779
      3771      3774      3777      3780      3772      3771      3774      3775
      3772      3771      3774      3776      3772      3771      3774      3777
      3773      3771      3774      3775      3773      3771      3774      3776
      3773      3771      3774      3777      3774      3777      3780      3781
      3774      3777      3780      3782      3774      3777      3780      3783
      3775      3774      3777      3778      3775      3774      3777      3779
      3775      3774      3777      3780      3776      3774      3777      3778
      3776      3774      3777      3779      3776      3774      3777      3780
      3777      3780      3783      3784      3777      3780      3783      3785
      3777      3780      3783      3786      3778      3777      3780      3781
      3778      3777      3780      3782      3778      3777      3780      3783
      3779      3777      3780      3781      3779      3777      3780      3782
      3779      3777      3780      3783      3780      3783      3786      3787
      3780      3783      3786      3788      3780      3783      3786      3789
      3781      3780      3783      3784      3781      3780      3783      3785
      3781      3780      3783      3786      3782      3780      3783      3784
      3782      3780      3783      3785      3782      3780      3783      3786
      3783      3786      3789      3790      3783      3786      3789      3791
      3784      3783      3786      3787      3784      3783      3786      3788
      3784      3783      3786      3789      3785      3783      3786      3787
      3785      3783      3786      3788      3785      3783      3786      3789
      3786      3789      3791      3792      3786      3789      3791      3793
      3787      3786      3789      3790      3787      3786      3789      3791
      3788      3786      3789      3790      3788      3786      3789      3791
      3789      3791      3793      3794      3789      3791      3793      3795
      3789      3791      3793      3796      3790      3789      3791      3792
      3790      3789      3791      3793      3791      3793      3796      3797
      3791      3793      3796      3798      3791      3793      3796      3799
      3792      3791      3793      3794      3792      3791      3793      3795
      3792      3791      3793      3796      3793      3796      3799      3800
      3793      3796      3799      3801      3793      3796      3799      3802
      3794      3793      3796      3797      3794      3793      3796      3798
      3794      3793      3796      3799      3795      3793      3796      3797
      3795      3793      3796      3798      3795      3793      3796      3799
      3796      3799      3802      3803      3796      3799      3802      3804
      3796      3799      3802      3805      3797      3796      3799      3800
      3797      3796      3799      3801      3797      3796      3799      3802
      3798      3796      3799      3800      3798      3796      3799      3801
      3798      3796      3799      3802      3799      3802      3805      3806
      3799      3802      3805      3807      3799      3802      3805      3808
      3800      3799      3802      3803      3800      3799      3802      3804
      3800      3799      3802      3805      3801      3799      3802      3803
      3801      3799      3802      3804      3801      3799      3802      3805
      3802      3805      3808      3809      3802      3805      3808      3810
      3802      3805      3808      3811      3803      3802      3805      3806
      3803      3802      3805      3807      3803      3802      3805      3808
      3804      3802      3805      3806      3804      3802      3805      3807
      3804      3802      3805      3808      3805      3808      3811      3812
      3805      3808      3811      3813      3805      3808      3811      3814
      3806      3805      3808      3809      3806      3805      3808      3810
      3806      3805      3808      3811      3807      3805      3808      3809
      3807      3805      3808      3810      3807      3805      3808      3811
      3808      3811      3814      3815      3808      3811      3814      3816
      3808      3811      3814      3817      3809      3808      3811      3812
      3809      3808      3811      3813      3809      3808      3811      3814
      3810      3808      3811      3812      3810      3808      3811      3813
      3810      3808      3811      3814      3812      3811      3814      3815
      3812      3811      3814      3816      3812      3811      3814      3817
      3813      3811      3814      3815      3813      3811      3814      3816
      3813      3811      3814      3817      3818      3821      3824      3825
      3818      3821      3824      3826      3818      3821      3824      3827
      3819      3818      3821      3822      3819      3818      3821      3823
      3819      3818      3821      3824      3820      3818      3821      3822
      3820      3818      3821      3823      3820      3818      3821      3824
      3821      3824      3827      3828      3821      3824      3827      3829
      3821      3824      3827      3830      3822      3821      3824      3825
      3822      3821      3824      3826      3822      3821      3824      3827
      3823      3821      3824      3825      3823      3821      3824      3826
      3823      3821      3824      3827      3824      3827      3830      3831
      3824      3827      3830      3832      3824      3827      3830      3833
      3825      3824      3827      3828      3825      3824      3827      3829
      3825      3824      3827      3830      3826      3824      3827      3828
      3826      3824      3827      3829      3826      3824      3827      3830
      3827      3830      3833      3834      3827      3830      3833      3835
      3827      3830      3833      3836      3828      3827      3830      3831
      3828      3827      3830      3832      3828      3827      3830      3833
      3829      3827      3830      3831      3829      3827      3830      3832
      3829      3827      3830      3833      3830      3833      3836      3837
      3830      3833      3836      3838      3831      3830      3833      3834
      3831      3830      3833      3835      3831      3830      3833      3836
      3832      3830      3833      3834      3832      3830      3833      3835
      3832      3830      3833      3836      3833      3836      3838      3839
      3833      3836      3838      3840      3834      3833      3836      3837
      3834      3833      3836      3838      3835      3833      3836      3837
      3835      3833      3836      3838      3836      3838      3840      3841
      3836      3838      3840      3842      3836      3838      3840      3843
      3837      3836      3838      3839      3837      3836      3838      3840
      3838      3840      3843      3844      3838      3840      3843      3845
      3838      3840      3843      3846      3839      3838      3840      3841
      3839      3838      3840      3842      3839      3838      3840      3843
      3840      3843      3846      3847      3840      3843      3846      3848
      3840      3843      3846      3849      3841      3840      3843      3844
      3841      3840      3843      3845      3841      3840      3843      3846
      3842      3840      3843      3844      3842      3840      3843      3845
      3842      3840      3843      3846      3843      3846      3849      3850
      3843      3846      3849      3851      3843      3846      3849      3852
      3844      3843      3846      3847      3844      3843      3846      3848
      3844      3843      3846      3849      3845      3843      3846      3847
      3845      3843      3846      3848      3845      3843      3846      3849
      3846      3849      3852      3853      3846      3849      3852      3854
      3846      3849      3852      3855      3847      3846      3849      3850
      3847      3846      3849      3851      3847      3846      3849      3852
      3848      3846      3849      3850      3848      3846      3849      3851
      3848      3846      3849      3852      3849      3852      3855      3856
      3849      3852      3855      3857      3849      3852      3855      3858
      3850      3849      3852      3853      3850      3849      3852      3854
      3850      3849      3852      3855      3851      3849      3852      3853
      3851      3849      3852      3854      3851      3849      3852      3855
      3852      3855      3858      3859      3852      3855      3858      3860
      3852      3855      3858      3861      3853      3852      3855      3856
      3853      3852      3855      3857      3853      3852      3855      3858
      3854      3852      3855      3856      3854      3852      3855      3857
      3854      3852      3855      3858      3855      3858      3861      3862
      3855      3858      3861      3863      3855      3858      3861      3864
      3856      3855      3858      3859      3856      3855      3858      3860
      3856      3855      3858      3861      3857      3855      3858      3859
      3857      3855      3858      3860      3857      3855      3858      3861
      3859      3858      3861      3862      3859      3858      3861      3863
      3859      3858      3861      3864      3860      3858      3861      3862
      3860      3858      3861      3863      3860      3858      3861      3864
      3865      3866      3881      3882      3865      3866      3881      3883
      3865      3866      3881      3887      3866      3865      3869      3870
      3866      3865      3869      3871      3866      3865      3869      3872
      3866      3865      3873      3874      3866      3865      3873      3875
      3866      3865      3873      3876      3866      3865      3877      3878
      3866      3865      3877      3879      3866      3865      3877      3880
      3866      3881      3887      3884      3867      3866      3865      3869
      3867      3866      3865      3873      3867      3866      3865      3877
      3867      3866      3881      3882      3867      3866      3881      3883
      3867      3866      3881      3887      3868      3866      3865      3869
      3868      3866      3865      3873      3868      3866      3865      3877
      3868      3866      3881      3882      3868      3866      3881      3883
      3868      3866      3881      3887      3869      3865      3866      3881
      3869      3865      3873      3874      3869      3865      3873      3875
      3869      3865      3873      3876      3869      3865      3877      3878
      3869      3865      3877      3879      3869      3865      3877      3880
      3870      3869      3865      3873      3870      3869      3865      3877
      3871      3869      3865      3873      3871      3869      3865      3877
      3872      3869      3865      3873      3872      3869      3865      3877
      3873      3865      3866      3881      3873      3865      3877      3878
      3873      3865      3877      3879      3873      3865      3877      3880
      3874      3873      3865      3877      3875      3873      3865      3877
      3876      3873      3865      3877      3877      3865      3866      3881
      3881      3887      3884      3885      3881      3887      3884      3886
      3881      3887      3884      3888      3882      3881      3887      3884
      3883      3881      3887      3884      3884      3888      3889      3890
      3884      3888      3889      3891      3884      3888      3889      3892
      3885      3884      3888      3889      3886      3884      3888      3889
      3887      3884      3888      3889      3888      3889      3892      3893
      3888      3889      3892      3894      3888      3889      3892      3900
      3889      3892      3894      3895      3889      3892      3900      3901
      3889      3892      3900      3902      3889      3892      3900      3903
      3890      3889      3892      3893      3890      3889      3892      3894
      3890      3889      3892      3900      3891      3889      3892      3893
      3891      3889      3892      3894      3891      3889      3892      3900
      3892      3894      3895      3896      3892      3894      3895      3897
      3892      3900      3903      3904      3893      3892      3894      3895
      3893      3892      3900      3901      3893      3892      3900      3902
      3893      3892      3900      3903      3894      3892      3900      3901
      3894      3892      3900      3902      3894      3892      3900      3903
      3894      3895      3897      3898      3894      3895      3897      3899
      3894      3895      3897      3909      3895      3894      3892      3900
      3895      3897      3909      3910      3895      3897      3909      3911
      3895      3897      3909      3912      3896      3895      3897      3898
      3896      3895      3897      3899      3896      3895      3897      3909
      3897      3909      3912      3913      3897      3909      3912      3914
      3897      3909      3912      3915      3898      3897      3909      3910
      3898      3897      3909      3911      3898      3897      3909      3912
      3899      3897      3909      3910      3899      3897      3909      3911
      3899      3897      3909      3912      3900      3903      3904      3905
      3900      3903      3904      3906      3901      3900      3903      3904
      3902      3900      3903      3904      3903      3904      3906      3907
      3903      3904      3906      3908      3903      3904      3906      3956
      3904      3906      3956      3957      3904      3906      3956      3958
      3904      3906      3956      3959      3905      3904      3906      3907
      3905      3904      3906      3908      3905      3904      3906      3956
      3906      3956      3959      3960      3906      3956      3959      3961
      3906      3956      3959      3962      3907      3906      3956      3957
      3907      3906      3956      3958      3907      3906      3956      3959
      3908      3906      3956      3957      3908      3906      3956      3958
      3908      3906      3956      3959      3909      3912      3915      3916
      3909      3912      3915      3917      3909      3912      3915      3918
      3910      3909      3912      3913      3910      3909      3912      3914
      3910      3909      3912      3915      3911      3909      3912      3913
      3911      3909      3912      3914      3911      3909      3912      3915
      3912      3915      3918      3919      3912      3915      3918      3920
      3912      3915      3918      3921      3913      3912      3915      3916
      3913      3912      3915      3917      3913      3912      3915      3918
      3914      3912      3915      3916      3914      3912      3915      3917
      3914      3912      3915      3918      3915      3918      3921      3922
      3915      3918      3921      3923      3915      3918      3921      3924
      3916      3915      3918      3919      3916      3915      3918      3920
      3916      3915      3918      3921      3917      3915      3918      3919
      3917      3915      3918      3920      3917      3915      3918      3921
      3918      3921      3924      3925      3918      3921      3924      3926
      3918      3921      3924      3927      3919      3918      3921      3922
      3919      3918      3921      3923      3919      3918      3921      3924
      3920      3918      3921      3922      3920      3918      3921      3923
      3920      3918      3921      3924      3921      3924      3927      3928
      3921      3924      3927      3929      3922      3921      3924      3925
      3922      3921      3924      3926      3922      3921      3924      3927
      3923      3921      3924      3925      3923      3921      3924      3926
      3923      3921      3924      3927      3924      3927      3929      3930
      3924      3927      3929      3931      3925      3924      3927      3928
      3925      3924      3927      3929      3926      3924      3927      3928
      3926      3924      3927      3929      3927      3929      3931      3932
      3927      3929      3931      3933      3927      3929      3931      3934
      3928      3927      3929      3930      3928      3927      3929      3931
      3929      3931      3934      3935      3929      3931      3934      3936
      3929      3931      3934      3937      3930      3929      3931      3932
      3930      3929      3931      3933      3930      3929      3931      3934
      3931      3934      3937      3938      3931      3934      3937      3939
      3931      3934      3937      3940      3932      3931      3934      3935
      3932      3931      3934      3936      3932      3931      3934      3937
      3933      3931      3934      3935      3933      3931      3934      3936
      3933      3931      3934      3937      3934      3937      3940      3941
      3934      3937      3940      3942      3934      3937      3940      3943
      3935      3934      3937      3938      3935      3934      3937      3939
      3935      3934      3937      3940      3936      3934      3937      3938
      3936      3934      3937      3939      3936      3934      3937      3940
      3937      3940      3943      3944      3937      3940      3943      3945
      3937      3940      3943      3946      3938      3937      3940      3941
      3938      3937      3940      3942      3938      3937      3940      3943
      3939      3937      3940      3941      3939      3937      3940      3942
      3939      3937      3940      3943      3940      3943      3946      3947
      3940      3943      3946      3948      3940      3943      3946      3949
      3941      3940      3943      3944      3941      3940      3943      3945
      3941      3940      3943      3946      3942      3940      3943      3944
      3942      3940      3943      3945      3942      3940      3943      3946
      3943      3946      3949      3950      3943      3946      3949      3951
      3943      3946      3949      3952      3944      3943      3946      3947
      3944      3943      3946      3948      3944      3943      3946      3949
      3945      3943      3946      3947      3945      3943      3946      3948
      3945      3943      3946      3949      3946      3949      3952      3953
      3946      3949      3952      3954      3946      3949      3952      3955
      3947      3946      3949      3950      3947      3946      3949      3951
      3947      3946      3949      3952      3948      3946      3949      3950
      3948      3946      3949      3951      3948      3946      3949      3952
      3950      3949      3952      3953      3950      3949      3952      3954
      3950      3949      3952      3955      3951      3949      3952      3953
      3951      3949      3952      3954      3951      3949      3952      3955
      3956      3959      3962      3963      3956      3959      3962      3964
      3956      3959      3962      3965      3957      3956      3959      3960
      3957      3956      3959      3961      3957      3956      3959      3962
      3958      3956      3959      3960      3958      3956      3959      3961
      3958      3956      3959      3962      3959      3962      3965      3966
      3959      3962      3965      3967      3959      3962      3965      3968
      3960      3959      3962      3963      3960      3959      3962      3964
      3960      3959      3962      3965      3961      3959      3962      3963
      3961      3959      3962      3964      3961      3959      3962      3965
      3962      3965      3968      3969      3962      3965      3968      3970
      3962      3965      3968      3971      3963      3962      3965      3966
      3963      3962      3965      3967      3963      3962      3965      3968
      3964      3962      3965      3966      3964      3962      3965      3967
      3964      3962      3965      3968      3965      3968      3971      3972
      3965      3968      3971      3973      3965      3968      3971      3974
      3966      3965      3968      3969      3966      3965      3968      3970
      3966      3965      3968      3971      3967      3965      3968      3969
      3967      3965      3968      3970      3967      3965      3968      3971
      3968      3971      3974      3975      3968      3971      3974      3976
      3969      3968      3971      3972      3969      3968      3971      3973
      3969      3968      3971      3974      3970      3968      3971      3972
      3970      3968      3971      3973      3970      3968      3971      3974
      3971      3974      3976      3977      3971      3974      3976      3978
      3972      3971      3974      3975      3972      3971      3974      3976
      3973      3971      3974      3975      3973      3971      3974      3976
      3974      3976      3978      3979      3974      3976      3978      3980
      3974      3976      3978      3981      3975      3974      3976      3977
      3975      3974      3976      3978      3976      3978      3981      3982
      3976      3978      3981      3983      3976      3978      3981      3984
      3977      3976      3978      3979      3977      3976      3978      3980
      3977      3976      3978      3981      3978      3981      3984      3985
      3978      3981      3984      3986      3978      3981      3984      3987
      3979      3978      3981      3982      3979      3978      3981      3983
      3979      3978      3981      3984      3980      3978      3981      3982
      3980      3978      3981      3983      3980      3978      3981      3984
      3981      3984      3987      3988      3981      3984      3987      3989
      3981      3984      3987      3990      3982      3981      3984      3985
      3982      3981      3984      3986      3982      3981      3984      3987
      3983      3981      3984      3985      3983      3981      3984      3986
      3983      3981      3984      3987      3984      3987      3990      3991
      3984      3987      3990      3992      3984      3987      3990      3993
      3985      3984      3987      3988      3985      3984      3987      3989
      3985      3984      3987      3990      3986      3984      3987      3988
      3986      3984      3987      3989      3986      3984      3987      3990
      3987      3990      3993      3994      3987      3990      3993      3995
      3987      3990      3993      3996      3988      3987      3990      3991
      3988      3987      3990      3992      3988      3987      3990      3993
      3989      3987      3990      3991      3989      3987      3990      3992
      3989      3987      3990      3993      3990      3993      3996      3997
      3990      3993      3996      3998      3990      3993      3996      3999
      3991      3990      3993      3994      3991      3990      3993      3995
      3991      3990      3993      3996      3992      3990      3993      3994
      3992      3990      3993      3995      3992      3990      3993      3996
      3993      3996      3999      4000      3993      3996      3999      4001
      3993      3996      3999      4002      3994      3993      3996      3997
      3994      3993      3996      3998      3994      3993      3996      3999
      3995      3993      3996      3997      3995      3993      3996      3998
      3995      3993      3996      3999      3997      3996      3999      4000
      3997      3996      3999      4001      3997      3996      3999      4002
      3998      3996      3999      4000      3998      3996      3999      4001
      3998      3996      3999      4002      4003      4004      4019      4020
      4003      4004      4019      4021      4003      4004      4019      4025
      4004      4003      4007      4008      4004      4003      4007      4009
      4004      4003      4007      4010      4004      4003      4011      4012
      4004      4003      4011      4013      4004      4003      4011      4014
      4004      4003      4015      4016      4004      4003      4015      4017
      4004      4003      4015      4018      4004      4019      4025      4022
      4005      4004      4003      4007      4005      4004      4003      4011
      4005      4004      4003      4015      4005      4004      4019      4020
      4005      4004      4019      4021      4005      4004      4019      4025
      4006      4004      4003      4007      4006      4004      4003      4011
      4006      4004      4003      4015      4006      4004      4019      4020
      4006      4004      4019      4021      4006      4004      4019      4025
      4007      4003      4004      4019      4007      4003      4011      4012
      4007      4003      4011      4013      4007      4003      4011      4014
      4007      4003      4015      4016      4007      4003      4015      4017
      4007      4003      4015      4018      4008      4007      4003      4011
      4008      4007      4003      4015      4009      4007      4003      4011
      4009      4007      4003      4015      4010      4007      4003      4011
      4010      4007      4003      4015      4011      4003      4004      4019
      4011      4003      4015      4016      4011      4003      4015      4017
      4011      4003      4015      4018      4012      4011      4003      4015
      4013      4011      4003      4015      4014      4011      4003      4015
      4015      4003      4004      4019      4019      4025      4022      4023
      4019      4025      4022      4024      4019      4025      4022      4026
      4020      4019      4025      4022      4021      4019      4025      4022
      4022      4026      4027      4028      4022      4026      4027      4029
      4022      4026      4027      4030      4023      4022      4026      4027
      4024      4022      4026      4027      4025      4022      4026      4027
      4026      4027      4030      4031      4026      4027      4030      4032
      4026      4027      4030      4038      4027      4030      4032      4033
      4027      4030      4038      4039      4027      4030      4038      4040
      4027      4030      4038      4041      4028      4027      4030      4031
      4028      4027      4030      4032      4028      4027      4030      4038
      4029      4027      4030      4031      4029      4027      4030      4032
      4029      4027      4030      4038      4030      4032      4033      4034
      4030      4032      4033      4035      4030      4038      4041      4042
      4031      4030      4032      4033      4031      4030      4038      4039
      4031      4030      4038      4040      4031      4030      4038      4041
      4032      4030      4038      4039      4032      4030      4038      4040
      4032      4030      4038      4041      4032      4033      4035      4036
      4032      4033      4035      4037      4032      4033      4035      4047
      4033      4032      4030      4038      4033      4035      4047      4048
      4033      4035      4047      4049      4033      4035      4047      4050
      4034      4033      4035      4036      4034      4033      4035      4037
      4034      4033      4035      4047      4035      4047      4050      4051
      4035      4047      4050      4052      4035      4047      4050      4053
      4036      4035      4047      4048      4036      4035      4047      4049
      4036      4035      4047      4050      4037      4035      4047      4048
      4037      4035      4047      4049      4037      4035      4047      4050
      4038      4041      4042      4043      4038      4041      4042      4044
      4039      4038      4041      4042      4040      4038      4041      4042
      4041      4042      4044      4045      4041      4042      4044      4046
      4041      4042      4044      4094      4042      4044      4094      4095
      4042      4044      4094      4096      4042      4044      4094      4097
      4043      4042      4044      4045      4043      4042      4044      4046
      4043      4042      4044      4094      4044      4094      4097      4098
      4044      4094      4097      4099      4044      4094      4097      4100
      4045      4044      4094      4095      4045      4044      4094      4096
      4045      4044      4094      4097      4046      4044      4094      4095
      4046      4044      4094      4096      4046      4044      4094      4097
      4047      4050      4053      4054      4047      4050      4053      4055
      4047      4050      4053      4056      4048      4047      4050      4051
      4048      4047      4050      4052      4048      4047      4050      4053
      4049      4047      4050      4051      4049      4047      4050      4052
      4049      4047      4050      4053      4050      4053      4056      4057
      4050      4053      4056      4058      4050      4053      4056      4059
      4051      4050      4053      4054      4051      4050      4053      4055
      4051      4050      4053      4056      4052      4050      4053      4054
      4052      4050      4053      4055      4052      4050      4053      4056
      4053      4056      4059      4060      4053      4056      4059      4061
      4053      4056      4059      4062      4054      4053      4056      4057
      4054      4053      4056      4058      4054      4053      4056      4059
      4055      4053      4056      4057      4055      4053      4056      4058
      4055      4053      4056      4059      4056      4059      4062      4063
      4056      4059      4062      4064      4056      4059      4062      4065
      4057      4056      4059      4060      4057      4056      4059      4061
      4057      4056      4059      4062      4058      4056      4059      4060
      4058      4056      4059      4061      4058      4056      4059      4062
      4059      4062      4065      4066      4059      4062      4065      4067
      4060      4059      4062      4063      4060      4059      4062      4064
      4060      4059      4062      4065      4061      4059      4062      4063
      4061      4059      4062      4064      4061      4059      4062      4065
      4062      4065      4067      4068      4062      4065      4067      4069
      4063      4062      4065      4066      4063      4062      4065      4067
      4064      4062      4065      4066      4064      4062      4065      4067
      4065      4067      4069      4070      4065      4067      4069      4071
      4065      4067      4069      4072      4066      4065      4067      4068
      4066      4065      4067      4069      4067      4069      4072      4073
      4067      4069      4072      4074      4067      4069      4072      4075
      4068      4067      4069      4070      4068      4067      4069      4071
      4068      4067      4069      4072      4069      4072      4075      4076
      4069      4072      4075      4077      4069      4072      4075      4078
      4070      4069      4072      4073      4070      4069      4072      4074
      4070      4069      4072      4075      4071      4069      4072      4073
      4071      4069      4072      4074      4071      4069      4072      4075
      4072      4075      4078      4079      4072      4075      4078      4080
      4072      4075      4078      4081      4073      4072      4075      4076
      4073      4072      4075      4077      4073      4072      4075      4078
      4074      4072      4075      4076      4074      4072      4075      4077
      4074      4072      4075      4078      4075      4078      4081      4082
      4075      4078      4081      4083      4075      4078      4081      4084
      4076      4075      4078      4079      4076      4075      4078      4080
      4076      4075      4078      4081      4077      4075      4078      4079
      4077      4075      4078      4080      4077      4075      4078      4081
      4078      4081      4084      4085      4078      4081      4084      4086
      4078      4081      4084      4087      4079      4078      4081      4082
      4079      4078      4081      4083      4079      4078      4081      4084
      4080      4078      4081      4082      4080      4078      4081      4083
      4080      4078      4081      4084      4081      4084      4087      4088
      4081      4084      4087      4089      4081      4084      4087      4090
      4082      4081      4084      4085      4082      4081      4084      4086
      4082      4081      4084      4087      4083      4081      4084      4085
      4083      4081      4084      4086      4083      4081      4084      4087
      4084      4087      4090      4091      4084      4087      4090      4092
      4084      4087      4090      4093      4085      4084      4087      4088
      4085      4084      4087      4089      4085      4084      4087      4090
      4086      4084      4087      4088      4086      4084      4087      4089
      4086      4084      4087      4090      4088      4087      4090      4091
      4088      4087      4090      4092      4088      4087      4090      4093
      4089      4087      4090      4091      4089      4087      4090      4092
      4089      4087      4090      4093      4094      4097      4100      4101
      4094      4097      4100      4102      4094      4097      4100      4103
      4095      4094      4097      4098      4095      4094      4097      4099
      4095      4094      4097      4100      4096      4094      4097      4098
      4096      4094      4097      4099      4096      4094      4097      4100
      4097      4100      4103      4104      4097      4100      4103      4105
      4097      4100      4103      4106      4098      4097      4100      4101
      4098      4097      4100      4102      4098      4097      4100      4103
      4099      4097      4100      4101      4099      4097      4100      4102
      4099      4097      4100      4103      4100      4103      4106      4107
      4100      4103      4106      4108      4100      4103      4106      4109
      4101      4100      4103      4104      4101      4100      4103      4105
      4101      4100      4103      4106      4102      4100      4103      4104
      4102      4100      4103      4105      4102      4100      4103      4106
      4103      4106      4109      4110      4103      4106      4109      4111
      4103      4106      4109      4112      4104      4103      4106      4107
      4104      4103      4106      4108      4104      4103      4106      4109
      4105      4103      4106      4107      4105      4103      4106      4108
      4105      4103      4106      4109      4106      4109      4112      4113
      4106      4109      4112      4114      4107      4106      4109      4110
      4107      4106      4109      4111      4107      4106      4109      4112
      4108      4106      4109      4110      4108      4106      4109      4111
      4108      4106      4109      4112      4109      4112      4114      4115
      4109      4112      4114      4116      4110      4109      4112      4113
      4110      4109      4112      4114      4111      4109      4112      4113
      4111      4109      4112      4114      4112      4114      4116      4117
      4112      4114      4116      4118      4112      4114      4116      4119
      4113      4112      4114      4115      4113      4112      4114      4116
      4114      4116      4119      4120      4114      4116      4119      4121
      4114      4116      4119      4122      4115      4114      4116      4117
      4115      4114      4116      4118      4115      4114      4116      4119
      4116      4119      4122      4123      4116      4119      4122      4124
      4116      4119      4122      4125      4117      4116      4119      4120
      4117      4116      4119      4121      4117      4116      4119      4122
      4118      4116      4119      4120      4118      4116      4119      4121
      4118      4116      4119      4122      4119      4122      4125      4126
      4119      4122      4125      4127      4119      4122      4125      4128
      4120      4119      4122      4123      4120      4119      4122      4124
      4120      4119      4122      4125      4121      4119      4122      4123
      4121      4119      4122      4124      4121      4119      4122      4125
      4122      4125      4128      4129      4122      4125      4128      4130
      4122      4125      4128      4131      4123      4122      4125      4126
      4123      4122      4125      4127      4123      4122      4125      4128
      4124      4122      4125      4126      4124      4122      4125      4127
      4124      4122      4125      4128      4125      4128      4131      4132
      4125      4128      4131      4133      4125      4128      4131      4134
      4126      4125      4128      4129      4126      4125      4128      4130
      4126      4125      4128      4131      4127      4125      4128      4129
      4127      4125      4128      4130      4127      4125      4128      4131
      4128      4131      4134      4135      4128      4131      4134      4136
      4128      4131      4134      4137      4129      4128      4131      4132
      4129      4128      4131      4133      4129      4128      4131      4134
      4130      4128      4131      4132      4130      4128      4131      4133
      4130      4128      4131      4134      4131      4134      4137      4138
      4131      4134      4137      4139      4131      4134      4137      4140
      4132      4131      4134      4135      4132      4131      4134      4136
      4132      4131      4134      4137      4133      4131      4134      4135
      4133      4131      4134      4136      4133      4131      4134      4137
      4135      4134      4137      4138      4135      4134      4137      4139
      4135      4134      4137      4140      4136      4134      4137      4138
      4136      4134      4137      4139      4136      4134      4137      4140
      4141      4142      4157      4158      4141      4142      4157      4159
      4141      4142      4157      4163      4142      4141      4145      4146
      4142      4141      4145      4147      4142      4141      4145      4148
      4142      4141      4149      4150      4142      4141      4149      4151
      4142      4141      4149      4152      4142      4141      4153      4154
      4142      4141      4153      4155      4142      4141      4153      4156
      4142      4157      4163      4160      4143      4142      4141      4145
      4143      4142      4141      4149      4143      4142      4141      4153
      4143      4142      4157      4158      4143      4142      4157      4159
      4143      4142      4157      4163      4144      4142      4141      4145
      4144      4142      4141      4149      4144      4142      4141      4153
      4144      4142      4157      4158      4144      4142      4157      4159
      4144      4142      4157      4163      4145      4141      4142      4157
      4145      4141      4149      4150      4145      4141      4149      4151
      4145      4141      4149      4152      4145      4141      4153      4154
      4145      4141      4153      4155      4145      4141      4153      4156
      4146      4145      4141      4149      4146      4145      4141      4153
      4147      4145      4141      4149      4147      4145      4141      4153
      4148      4145      4141      4149      4148      4145      4141      4153
      4149      4141      4142      4157      4149      4141      4153      4154
      4149      4141      4153      4155      4149      4141      4153      4156
      4150      4149      4141      4153      4151      4149      4141      4153
      4152      4149      4141      4153      4153      4141      4142      4157
      4157      4163      4160      4161      4157      4163      4160      4162
      4157      4163      4160      4164      4158      4157      4163      4160
      4159      4157      4163      4160      4160      4164      4165      4166
      4160      4164      4165      4167      4160      4164      4165      4168
      4161      4160      4164      4165      4162      4160      4164      4165
      4163      4160      4164      4165      4164      4165      4168      4169
      4164      4165      4168      4170      4164      4165      4168      4176
      4165      4168      4170      4171      4165      4168      4176      4177
      4165      4168      4176      4178      4165      4168      4176      4179
      4166      4165      4168      4169      4166      4165      4168      4170
      4166      4165      4168      4176      4167      4165      4168      4169
      4167      4165      4168      4170      4167      4165      4168      4176
      4168      4170      4171      4172      4168      4170      4171      4173
      4168      4176      4179      4180      4169      4168      4170      4171
      4169      4168      4176      4177      4169      4168      4176      4178
      4169      4168      4176      4179      4170      4168      4176      4177
      4170      4168      4176      4178      4170      4168      4176      4179
      4170      4171      4173      4174      4170      4171      4173      4175
      4170      4171      4173      4185      4171      4170      4168      4176
      4171      4173      4185      4186      4171      4173      4185      4187
      4171      4173      4185      4188      4172      4171      4173      4174
      4172      4171      4173      4175      4172      4171      4173      4185
      4173      4185      4188      4189      4173      4185      4188      4190
      4173      4185      4188      4191      4174      4173      4185      4186
      4174      4173      4185      4187      4174      4173      4185      4188
      4175      4173      4185      4186      4175      4173      4185      4187
      4175      4173      4185      4188      4176      4179      4180      4181
      4176      4179      4180      4182      4177      4176      4179      4180
      4178      4176      4179      4180      4179      4180      4182      4183
      4179      4180      4182      4184      4179      4180      4182      4232
      4180      4182      4232      4233      4180      4182      4232      4234
      4180      4182      4232      4235      4181      4180      4182      4183
      4181      4180      4182      4184      4181      4180      4182      4232
      4182      4232      4235      4236      4182      4232      4235      4237
      4182      4232      4235      4238      4183      4182      4232      4233
      4183      4182      4232      4234      4183      4182      4232      4235
      4184      4182      4232      4233      4184      4182      4232      4234
      4184      4182      4232      4235      4185      4188      4191      4192
      4185      4188      4191      4193      4185      4188      4191      4194
      4186      4185      4188      4189      4186      4185      4188      4190
      4186      4185      4188      4191      4187      4185      4188      4189
      4187      4185      4188      4190      4187      4185      4188      4191
      4188      4191      4194      4195      4188      4191      4194      4196
      4188      4191      4194      4197      4189      4188      4191      4192
      4189      4188      4191      4193      4189      4188      4191      4194
      4190      4188      4191      4192      4190      4188      4191      4193
      4190      4188      4191      4194      4191      4194      4197      4198
      4191      4194      4197      4199      4191      4194      4197      4200
      4192      4191      4194      4195      4192      4191      4194      4196
      4192      4191      4194      4197      4193      4191      4194      4195
      4193      4191      4194      4196      4193      4191      4194      4197
      4194      4197      4200      4201      4194      4197      4200      4202
      4194      4197      4200      4203      4195      4194      4197      4198
      4195      4194      4197      4199      4195      4194      4197      4200
      4196      4194      4197      4198      4196      4194      4197      4199
      4196      4194      4197      4200      4197      4200      4203      4204
      4197      4200      4203      4205      4198      4197      4200      4201
      4198      4197      4200      4202      4198      4197      4200      4203
      4199      4197      4200      4201      4199      4197      4200      4202
      4199      4197      4200      4203      4200      4203      4205      4206
      4200      4203      4205      4207      4201      4200      4203      4204
      4201      4200      4203      4205      4202      4200      4203      4204
      4202      4200      4203      4205      4203      4205      4207      4208
      4203      4205      4207      4209      4203      4205      4207      4210
      4204      4203      4205      4206      4204      4203      4205      4207
      4205      4207      4210      4211      4205      4207      4210      4212
      4205      4207      4210      4213      4206      4205      4207      4208
      4206      4205      4207      4209      4206      4205      4207      4210
      4207      4210      4213      4214      4207      4210      4213      4215
      4207      4210      4213      4216      4208      4207      4210      4211
      4208      4207      4210      4212      4208      4207      4210      4213
      4209      4207      4210      4211      4209      4207      4210      4212
      4209      4207      4210      4213      4210      4213      4216      4217
      4210      4213      4216      4218      4210      4213      4216      4219
      4211      4210      4213      4214      4211      4210      4213      4215
      4211      4210      4213      4216      4212      4210      4213      4214
      4212      4210      4213      4215      4212      4210      4213      4216
      4213      4216      4219      4220      4213      4216      4219      4221
      4213      4216      4219      4222      4214      4213      4216      4217
      4214      4213      4216      4218      4214      4213      4216      4219
      4215      4213      4216      4217      4215      4213      4216      4218
      4215      4213      4216      4219      4216      4219      4222      4223
      4216      4219      4222      4224      4216      4219      4222      4225
      4217      4216      4219      4220      4217      4216      4219      4221
      4217      4216      4219      4222      4218      4216      4219      4220
      4218      4216      4219      4221      4218      4216      4219      4222
      4219      4222      4225      4226      4219      4222      4225      4227
      4219      4222      4225      4228      4220      4219      4222      4223
      4220      4219      4222      4224      4220      4219      4222      4225
      4221      4219      4222      4223      4221      4219      4222      4224
      4221      4219      4222      4225      4222      4225      4228      4229
      4222      4225      4228      4230      4222      4225      4228      4231
      4223      4222      4225      4226      4223      4222      4225      4227
      4223      4222      4225      4228      4224      4222      4225      4226
      4224      4222      4225      4227      4224      4222      4225      4228
      4226      4225      4228      4229      4226      4225      4228      4230
      4226      4225      4228      4231      4227      4225      4228      4229
      4227      4225      4228      4230      4227      4225      4228      4231
      4232      4235      4238      4239      4232      4235      4238      4240
      4232      4235      4238      4241      4233      4232      4235      4236
      4233      4232      4235      4237      4233      4232      4235      4238
      4234      4232      4235      4236      4234      4232      4235      4237
      4234      4232      4235      4238      4235      4238      4241      4242
      4235      4238      4241      4243      4235      4238      4241      4244
      4236      4235      4238      4239      4236      4235      4238      4240
      4236      4235      4238      4241      4237      4235      4238      4239
      4237      4235      4238      4240      4237      4235      4238      4241
      4238      4241      4244      4245      4238      4241      4244      4246
      4238      4241      4244      4247      4239      4238      4241      4242
      4239      4238      4241      4243      4239      4238      4241      4244
      4240      4238      4241      4242      4240      4238      4241      4243
      4240      4238      4241      4244      4241      4244      4247      4248
      4241      4244      4247      4249      4241      4244      4247      4250
      4242      4241      4244      4245      4242      4241      4244      4246
      4242      4241      4244      4247      4243      4241      4244      4245
      4243      4241      4244      4246      4243      4241      4244      4247
      4244      4247      4250      4251      4244      4247      4250      4252
      4245      4244      4247      4248      4245      4244      4247      4249
      4245      4244      4247      4250      4246      4244      4247      4248
      4246      4244      4247      4249      4246      4244      4247      4250
      4247      4250      4252      4253      4247      4250      4252      4254
      4248      4247      4250      4251      4248      4247      4250      4252
      4249      4247      4250      4251      4249      4247      4250      4252
      4250      4252      4254      4255      4250      4252      4254      4256
      4250      4252      4254      4257      4251      4250      4252      4253
      4251      4250      4252      4254      4252      4254      4257      4258
      4252      4254      4257      4259      4252      4254      4257      4260
      4253      4252      4254      4255      4253      4252      4254      4256
      4253      4252      4254      4257      4254      4257      4260      4261
      4254      4257      4260      4262      4254      4257      4260      4263
      4255      4254      4257      4258      4255      4254      4257      4259
      4255      4254      4257      4260      4256      4254      4257      4258
      4256      4254      4257      4259      4256      4254      4257      4260
      4257      4260      4263      4264      4257      4260      4263      4265
      4257      4260      4263      4266      4258      4257      4260      4261
      4258      4257      4260      4262      4258      4257      4260      4263
      4259      4257      4260      4261      4259      4257      4260      4262
      4259      4257      4260      4263      4260      4263      4266      4267
      4260      4263      4266      4268      4260      4263      4266      4269
      4261      4260      4263      4264      4261      4260      4263      4265
      4261      4260      4263      4266      4262      4260      4263      4264
      4262      4260      4263      4265      4262      4260      4263      4266
      4263      4266      4269      4270      4263      4266      4269      4271
      4263      4266      4269      4272      4264      4263      4266      4267
      4264      4263      4266      4268      4264      4263      4266      4269
      4265      4263      4266      4267      4265      4263      4266      4268
      4265      4263      4266      4269      4266      4269      4272      4273
      4266      4269      4272      4274      4266      4269      4272      4275
      4267      4266      4269      4270      4267      4266      4269      4271
      4267      4266      4269      4272      4268      4266      4269      4270
      4268      4266      4269      4271      4268      4266      4269      4272
      4269      4272      4275      4276      4269      4272      4275      4277
      4269      4272      4275      4278      4270      4269      4272      4273
      4270      4269      4272      4274      4270      4269      4272      4275
      4271      4269      4272      4273      4271      4269      4272      4274
      4271      4269      4272      4275      4273      4272      4275      4276
      4273      4272      4275      4277      4273      4272      4275      4278
      4274      4272      4275      4276      4274      4272      4275      4277
      4274      4272      4275      4278      4279      4280      4295      4296
      4279      4280      4295      4297      4279      4280      4295      4301
      4280      4279      4283      4284      4280      4279      4283      4285
      4280      4279      4283      4286      4280      4279      4287      4288
      4280      4279      4287      4289      4280      4279      4287      4290
      4280      4279      4291      4292      4280      4279      4291      4293
      4280      4279      4291      4294      4280      4295      4301      4298
      4281      4280      4279      4283      4281      4280      4279      4287
      4281      4280      4279      4291      4281      4280      4295      4296
      4281      4280      4295      4297      4281      4280      4295      4301
      4282      4280      4279      4283      4282      4280      4279      4287
      4282      4280      4279      4291      4282      4280      4295      4296
      4282      4280      4295      4297      4282      4280      4295      4301
      4283      4279      4280      4295      4283      4279      4287      4288
      4283      4279      4287      4289      4283      4279      4287      4290
      4283      4279      4291      4292      4283      4279      4291      4293
      4283      4279      4291      4294      4284      4283      4279      4287
      4284      4283      4279      4291      4285      4283      4279      4287
      4285      4283      4279      4291      4286      4283      4279      4287
      4286      4283      4279      4291      4287      4279      4280      4295
      4287      4279      4291      4292      4287      4279      4291      4293
      4287      4279      4291      4294      4288      4287      4279      4291
      4289      4287      4279      4291      4290      4287      4279      4291
      4291      4279      4280      4295      4295      4301      4298      4299
      4295      4301      4298      4300      4295      4301      4298      4302
      4296      4295      4301      4298      4297      4295      4301      4298
      4298      4302      4303      4304      4298      4302      4303      4305
      4298      4302      4303      4306      4299      4298      4302      4303
      4300      4298      4302      4303      4301      4298      4302      4303
      4302      4303      4306      4307      4302      4303      4306      4308
      4302      4303      4306      4314      4303      4306      4308      4309
      4303      4306      4314      4315      4303      4306      4314      4316
      4303      4306      4314      4317      4304      4303      4306      4307
      4304      4303      4306      4308      4304      4303      4306      4314
      4305      4303      4306      4307      4305      4303      4306      4308
      4305      4303      4306      4314      4306      4308      4309      4310
      4306      4308      4309      4311      4306      4314      4317      4318
      4307      4306      4308      4309      4307      4306      4314      4315
      4307      4306      4314      4316      4307      4306      4314      4317
      4308      4306      4314      4315      4308      4306      4314      4316
      4308      4306      4314      4317      4308      4309      4311      4312
      4308      4309      4311      4313      4308      4309      4311      4323
      4309      4308      4306      4314      4309      4311      4323      4324
      4309      4311      4323      4325      4309      4311      4323      4326
      4310      4309      4311      4312      4310      4309      4311      4313
      4310      4309      4311      4323      4311      4323      4326      4327
      4311      4323      4326      4328      4311      4323      4326      4329
      4312      4311      4323      4324      4312      4311      4323      4325
      4312      4311      4323      4326      4313      4311      4323      4324
      4313      4311      4323      4325      4313      4311      4323      4326
      4314      4317      4318      4319      4314      4317      4318      4320
      4315      4314      4317      4318      4316      4314      4317      4318
      4317      4318      4320      4321      4317      4318      4320      4322
      4317      4318      4320      4370      4318      4320      4370      4371
      4318      4320      4370      4372      4318      4320      4370      4373
      4319      4318      4320      4321      4319      4318      4320      4322
      4319      4318      4320      4370      4320      4370      4373      4374
      4320      4370      4373      4375      4320      4370      4373      4376
      4321      4320      4370      4371      4321      4320      4370      4372
      4321      4320      4370      4373      4322      4320      4370      4371
      4322      4320      4370      4372      4322      4320      4370      4373
      4323      4326      4329      4330      4323      4326      4329      4331
      4323      4326      4329      4332      4324      4323      4326      4327
      4324      4323      4326      4328      4324      4323      4326      4329
      4325      4323      4326      4327      4325      4323      4326      4328
      4325      4323      4326      4329      4326      4329      4332      4333
      4326      4329      4332      4334      4326      4329      4332      4335
      4327      4326      4329      4330      4327      4326      4329      4331
      4327      4326      4329      4332      4328      4326      4329      4330
      4328      4326      4329      4331      4328      4326      4329      4332
      4329      4332      4335      4336      4329      4332      4335      4337
      4329      4332      4335      4338      4330      4329      4332      4333
      4330      4329      4332      4334      4330      4329      4332      4335
      4331      4329      4332      4333      4331      4329      4332      4334
      4331      4329      4332      4335      4332      4335      4338      4339
      4332      4335      4338      4340      4332      4335      4338      4341
      4333      4332      4335      4336      4333      4332      4335      4337
      4333      4332      4335      4338      4334      4332      4335      4336
      4334      4332      4335      4337      4334      4332      4335      4338
      4335      4338      4341      4342      4335      4338      4341      4343
      4336      4335      4338      4339      4336      4335      4338      4340
      4336      4335      4338      4341      4337      4335      4338      4339
      4337      4335      4338      4340      4337      4335      4338      4341
      4338      4341      4343      4344      4338      4341      4343      4345
      4339      4338      4341      4342      4339      4338      4341      4343
      4340      4338      4341      4342      4340      4338      4341      4343
      4341      4343      4345      4346      4341      4343      4345      4347
      4341      4343      4345      4348      4342      4341      4343      4344
      4342      4341      4343      4345      4343      4345      4348      4349
      4343      4345      4348      4350      4343      4345      4348      4351
      4344      4343      4345      4346      4344      4343      4345      4347
      4344      4343      4345      4348      4345      4348      4351      4352
      4345      4348      4351      4353      4345      4348      4351      4354
      4346      4345      4348      4349      4346      4345      4348      4350
      4346      4345      4348      4351      4347      4345      4348      4349
      4347      4345      4348      4350      4347      4345      4348      4351
      4348      4351      4354      4355      4348      4351      4354      4356
      4348      4351      4354      4357      4349      4348      4351      4352
      4349      4348      4351      4353      4349      4348      4351      4354
      4350      4348      4351      4352      4350      4348      4351      4353
      4350      4348      4351      4354      4351      4354      4357      4358
      4351      4354      4357      4359      4351      4354      4357      4360
      4352      4351      4354      4355      4352      4351      4354      4356
      4352      4351      4354      4357      4353      4351      4354      4355
      4353      4351      4354      4356      4353      4351      4354      4357
      4354      4357      4360      4361      4354      4357      4360      4362
      4354      4357      4360      4363      4355      4354      4357      4358
      4355      4354      4357      4359      4355      4354      4357      4360
      4356      4354      4357      4358      4356      4354      4357      4359
      4356      4354      4357      4360      4357      4360      4363      4364
      4357      4360      4363      4365      4357      4360      4363      4366
      4358      4357      4360      4361      4358      4357      4360      4362
      4358      4357      4360      4363      4359      4357      4360      4361
      4359      4357      4360      4362      4359      4357      4360      4363
      4360      4363      4366      4367      4360      4363      4366      4368
      4360      4363      4366      4369      4361      4360      4363      4364
      4361      4360      4363      4365      4361      4360      4363      4366
      4362      4360      4363      4364      4362      4360      4363      4365
      4362      4360      4363      4366      4364      4363      4366      4367
      4364      4363      4366      4368      4364      4363      4366      4369
      4365      4363      4366      4367      4365      4363      4366      4368
      4365      4363      4366      4369      4370      4373      4376      4377
      4370      4373      4376      4378      4370      4373      4376      4379
      4371      4370      4373      4374      4371      4370      4373      4375
      4371      4370      4373      4376      4372      4370      4373      4374
      4372      4370      4373      4375      4372      4370      4373      4376
      4373      4376      4379      4380      4373      4376      4379      4381
      4373      4376      4379      4382      4374      4373      4376      4377
      4374      4373      4376      4378      4374      4373      4376      4379
      4375      4373      4376      4377      4375      4373      4376      4378
      4375      4373      4376      4379      4376      4379      4382      4383
      4376      4379      4382      4384      4376      4379      4382      4385
      4377      4376      4379      4380      4377      4376      4379      4381
      4377      4376      4379      4382      4378      4376      4379      4380
      4378      4376      4379      4381      4378      4376      4379      4382
      4379      4382      4385      4386      4379      4382      4385      4387
      4379      4382      4385      4388      4380      4379      4382      4383
      4380      4379      4382      4384      4380      4379      4382      4385
      4381      4379      4382      4383      4381      4379      4382      4384
      4381      4379      4382      4385      4382      4385      4388      4389
      4382      4385      4388      4390      4383      4382      4385      4386
      4383      4382      4385      4387      4383      4382      4385      4388
      4384      4382      4385      4386      4384      4382      4385      4387
      4384      4382      4385      4388      4385      4388      4390      4391
      4385      4388      4390      4392      4386      4385      4388      4389
      4386      4385      4388      4390      4387      4385      4388      4389
      4387      4385      4388      4390      4388      4390      4392      4393
      4388      4390      4392      4394      4388      4390      4392      4395
      4389      4388      4390      4391      4389      4388      4390      4392
      4390      4392      4395      4396      4390      4392      4395      4397
      4390      4392      4395      4398      4391      4390      4392      4393
      4391      4390      4392      4394      4391      4390      4392      4395
      4392      4395      4398      4399      4392      4395      4398      4400
      4392      4395      4398      4401      4393      4392      4395      4396
      4393      4392      4395      4397      4393      4392      4395      4398
      4394      4392      4395      4396      4394      4392      4395      4397
      4394      4392      4395      4398      4395      4398      4401      4402
      4395      4398      4401      4403      4395      4398      4401      4404
      4396      4395      4398      4399      4396      4395      4398      4400
      4396      4395      4398      4401      4397      4395      4398      4399
      4397      4395      4398      4400      4397      4395      4398      4401
      4398      4401      4404      4405      4398      4401      4404      4406
      4398      4401      4404      4407      4399      4398      4401      4402
      4399      4398      4401      4403      4399      4398      4401      4404
      4400      4398      4401      4402      4400      4398      4401      4403
      4400      4398      4401      4404      4401      4404      4407      4408
      4401      4404      4407      4409      4401      4404      4407      4410
      4402      4401      4404      4405      4402      4401      4404      4406
      4402      4401      4404      4407      4403      4401      4404      4405
      4403      4401      4404      4406      4403      4401      4404      4407
      4404      4407      4410      4411      4404      4407      4410      4412
      4404      4407      4410      4413      4405      4404      4407      4408
      4405      4404      4407      4409      4405      4404      4407      4410
      4406      4404      4407      4408      4406      4404      4407      4409
      4406      4404      4407      4410      4407      4410      4413      4414
      4407      4410      4413      4415      4407      4410      4413      4416
      4408      4407      4410      4411      4408      4407      4410      4412
      4408      4407      4410      4413      4409      4407      4410      4411
      4409      4407      4410      4412      4409      4407      4410      4413
      4411      4410      4413      4414      4411      4410      4413      4415
      4411      4410      4413      4416      4412      4410      4413      4414
      4412      4410      4413      4415      4412      4410      4413      4416
      4417      4418      4433      4434      4417      4418      4433      4435
      4417      4418      4433      4439      4418      4417      4421      4422
      4418      4417      4421      4423      4418      4417      4421      4424
      4418      4417      4425      4426      4418      4417      4425      4427
      4418      4417      4425      4428      4418      4417      4429      4430
      4418      4417      4429      4431      4418      4417      4429      4432
      4418      4433      4439      4436      4419      4418      4417      4421
      4419      4418      4417      4425      4419      4418      4417      4429
      4419      4418      4433      4434      4419      4418      4433      4435
      4419      4418      4433      4439      4420      4418      4417      4421
      4420      4418      4417      4425      4420      4418      4417      4429
      4420      4418      4433      4434      4420      4418      4433      4435
      4420      4418      4433      4439      4421      4417      4418      4433
      4421      4417      4425      4426      4421      4417      4425      4427
      4421      4417      4425      4428      4421      4417      4429      4430
      4421      4417      4429      4431      4421      4417      4429      4432
      4422      4421      4417      4425      4422      4421      4417      4429
      4423      4421      4417      4425      4423      4421      4417      4429
      4424      4421      4417      4425      4424      4421      4417      4429
      4425      4417      4418      4433      4425      4417      4429      4430
      4425      4417      4429      4431      4425      4417      4429      4432
      4426      4425      4417      4429      4427      4425      4417      4429
      4428      4425      4417      4429      4429      4417      4418      4433
      4433      4439      4436      4437      4433      4439      4436      4438
      4433      4439      4436      4440      4434      4433      4439      4436
      4435      4433      4439      4436      4436      4440      4441      4442
      4436      4440      4441      4443      4436      4440      4441      4444
      4437      4436      4440      4441      4438      4436      4440      4441
      4439      4436      4440      4441      4440      4441      4444      4445
      4440      4441      4444      4446      4440      4441      4444      4452
      4441      4444      4446      4447      4441      4444      4452      4453
      4441      4444      4452      4454      4441      4444      4452      4455
      4442      4441      4444      4445      4442      4441      4444      4446
      4442      4441      4444      4452      4443      4441      4444      4445
      4443      4441      4444      4446      4443      4441      4444      4452
      4444      4446      4447      4448      4444      4446      4447      4449
      4444      4452      4455      4456      4445      4444      4446      4447
      4445      4444      4452      4453      4445      4444      4452      4454
      4445      4444      4452      4455      4446      4444      4452      4453
      4446      4444      4452      4454      4446      4444      4452      4455
      4446      4447      4449      4450      4446      4447      4449      4451
      4446      4447      4449      4461      4447      4446      4444      4452
      4447      4449      4461      4462      4447      4449      4461      4463
      4447      4449      4461      4464      4448      4447      4449      4450
      4448      4447      4449      4451      4448      4447      4449      4461
      4449      4461      4464      4465      4449      4461      4464      4466
      4449      4461      4464      4467      4450      4449      4461      4462
      4450      4449      4461      4463      4450      4449      4461      4464
      4451      4449      4461      4462      4451      4449      4461      4463
      4451      4449      4461      4464      4452      4455      4456      4457
      4452      4455      4456      4458      4453      4452      4455      4456
      4454      4452      4455      4456      4455      4456      4458      4459
      4455      4456      4458      4460      4455      4456      4458      4508
      4456      4458      4508      4509      4456      4458      4508      4510
      4456      4458      4508      4511      4457      4456      4458      4459
      4457      4456      4458      4460      4457      4456      4458      4508
      4458      4508      4511      4512      4458      4508      4511      4513
      4458      4508      4511      4514      4459      4458      4508      4509
      4459      4458      4508      4510      4459      4458      4508      4511
      4460      4458      4508      4509      4460      4458      4508      4510
      4460      4458      4508      4511      4461      4464      4467      4468
      4461      4464      4467      4469      4461      4464      4467      4470
      4462      4461      4464      4465      4462      4461      4464      4466
      4462      4461      4464      4467      4463      4461      4464      4465
      4463      4461      4464      4466      4463      4461      4464      4467
      4464      4467      4470      4471      4464      4467      4470      4472
      4464      4467      4470      4473      4465      4464      4467      4468
      4465      4464      4467      4469      4465      4464      4467      4470
      4466      4464      4467      4468      4466      4464      4467      4469
      4466      4464      4467      4470      4467      4470      4473      4474
      4467      4470      4473      4475      4467      4470      4473      4476
      4468      4467      4470      4471      4468      4467      4470      4472
      4468      4467      4470      4473      4469      4467      4470      4471
      4469      4467      4470      4472      4469      4467      4470      4473
      4470      4473      4476      4477      4470      4473      4476      4478
      4470      4473      4476      4479      4471      4470      4473      4474
      4471      4470      4473      4475      4471      4470      4473      4476
      4472      4470      4473      4474      4472      4470      4473      4475
      4472      4470      4473      4476      4473      4476      4479      4480
      4473      4476      4479      4481      4474      4473      4476      4477
      4474      4473      4476      4478      4474      4473      4476      4479
      4475      4473      4476      4477      4475      4473      4476      4478
      4475      4473      4476      4479      4476      4479      4481      4482
      4476      4479      4481      4483      4477      4476      4479      4480
      4477      4476      4479      4481      4478      4476      4479      4480
      4478      4476      4479      4481      4479      4481      4483      4484
      4479      4481      4483      4485      4479      4481      4483      4486
      4480      4479      4481      4482      4480      4479      4481      4483
      4481      4483      4486      4487      4481      4483      4486      4488
      4481      4483      4486      4489      4482      4481      4483      4484
      4482      4481      4483      4485      4482      4481      4483      4486
      4483      4486      4489      4490      4483      4486      4489      4491
      4483      4486      4489      4492      4484      4483      4486      4487
      4484      4483      4486      4488      4484      4483      4486      4489
      4485      4483      4486      4487      4485      4483      4486      4488
      4485      4483      4486      4489      4486      4489      4492      4493
      4486      4489      4492      4494      4486      4489      4492      4495
      4487      4486      4489      4490      4487      4486      4489      4491
      4487      4486      4489      4492      4488      4486      4489      4490
      4488      4486      4489      4491      4488      4486      4489      4492
      4489      4492      4495      4496      4489      4492      4495      4497
      4489      4492      4495      4498      4490      4489      4492      4493
      4490      4489      4492      4494      4490      4489      4492      4495
      4491      4489      4492      4493      4491      4489      4492      4494
      4491      4489      4492      4495      4492      4495      4498      4499
      4492      4495      4498      4500      4492      4495      4498      4501
      4493      4492      4495      4496      4493      4492      4495      4497
      4493      4492      4495      4498      4494      4492      4495      4496
      4494      4492      4495      4497      4494      4492      4495      4498
      4495      4498      4501      4502      4495      4498      4501      4503
      4495      4498      4501      4504      4496      4495      4498      4499
      4496      4495      4498      4500      4496      4495      4498      4501
      4497      4495      4498      4499      4497      4495      4498      4500
      4497      4495      4498      4501      4498      4501      4504      4505
      4498      4501      4504      4506      4498      4501      4504      4507
      4499      4498      4501      4502      4499      4498      4501      4503
      4499      4498      4501      4504      4500      4498      4501      4502
      4500      4498      4501      4503      4500      4498      4501      4504
      4502      4501      4504      4505      4502      4501      4504      4506
      4502      4501      4504      4507      4503      4501      4504      4505
      4503      4501      4504      4506      4503      4501      4504      4507
      4508      4511      4514      4515      4508      4511      4514      4516
      4508      4511      4514      4517      4509      4508      4511      4512
      4509      4508      4511      4513      4509      4508      4511      4514
      4510      4508      4511      4512      4510      4508      4511      4513
      4510      4508      4511      4514      4511      4514      4517      4518
      4511      4514      4517      4519      4511      4514      4517      4520
      4512      4511      4514      4515      4512      4511      4514      4516
      4512      4511      4514      4517      4513      4511      4514      4515
      4513      4511      4514      4516      4513      4511      4514      4517
      4514      4517      4520      4521      4514      4517      4520      4522
      4514      4517      4520      4523      4515      4514      4517      4518
      4515      4514      4517      4519      4515      4514      4517      4520
      4516      4514      4517      4518      4516      4514      4517      4519
      4516      4514      4517      4520      4517      4520      4523      4524
      4517      4520      4523      4525      4517      4520      4523      4526
      4518      4517      4520      4521      4518      4517      4520      4522
      4518      4517      4520      4523      4519      4517      4520      4521
      4519      4517      4520      4522      4519      4517      4520      4523
      4520      4523      4526      4527      4520      4523      4526      4528
      4521      4520      4523      4524      4521      4520      4523      4525
      4521      4520      4523      4526      4522      4520      4523      4524
      4522      4520      4523      4525      4522      4520      4523      4526
      4523      4526      4528      4529      4523      4526      4528      4530
      4524      4523      4526      4527      4524      4523      4526      4528
      4525      4523      4526      4527      4525      4523      4526      4528
      4526      4528      4530      4531      4526      4528      4530      4532
      4526      4528      4530      4533      4527      4526      4528      4529
      4527      4526      4528      4530      4528      4530      4533      4534
      4528      4530      4533      4535      4528      4530      4533      4536
      4529      4528      4530      4531      4529      4528      4530      4532
      4529      4528      4530      4533      4530      4533      4536      4537
      4530      4533      4536      4538      4530      4533      4536      4539
      4531      4530      4533      4534      4531      4530      4533      4535
      4531      4530      4533      4536      4532      4530      4533      4534
      4532      4530      4533      4535      4532      4530      4533      4536
      4533      4536      4539      4540      4533      4536      4539      4541
      4533      4536      4539      4542      4534      4533      4536      4537
      4534      4533      4536      4538      4534      4533      4536      4539
      4535      4533      4536      4537      4535      4533      4536      4538
      4535      4533      4536      4539      4536      4539      4542      4543
      4536      4539      4542      4544      4536      4539      4542      4545
      4537      4536      4539      4540      4537      4536      4539      4541
      4537      4536      4539      4542      4538      4536      4539      4540
      4538      4536      4539      4541      4538      4536      4539      4542
      4539      4542      4545      4546      4539      4542      4545      4547
      4539      4542      4545      4548      4540      4539      4542      4543
      4540      4539      4542      4544      4540      4539      4542      4545
      4541      4539      4542      4543      4541      4539      4542      4544
      4541      4539      4542      4545      4542      4545      4548      4549
      4542      4545      4548      4550      4542      4545      4548      4551
      4543      4542      4545      4546      4543      4542      4545      4547
      4543      4542      4545      4548      4544      4542      4545      4546
      4544      4542      4545      4547      4544      4542      4545      4548
      4545      4548      4551      4552      4545      4548      4551      4553
      4545      4548      4551      4554      4546      4545      4548      4549
      4546      4545      4548      4550      4546      4545      4548      4551
      4547      4545      4548      4549      4547      4545      4548      4550
      4547      4545      4548      4551      4549      4548      4551      4552
      4549      4548      4551      4553      4549      4548      4551      4554
      4550      4548      4551      4552      4550      4548      4551      4553
      4550      4548      4551      4554      4555      4556      4571      4572
      4555      4556      4571      4573      4555      4556      4571      4577
      4556      4555      4559      4560      4556      4555      4559      4561
      4556      4555      4559      4562      4556      4555      4563      4564
      4556      4555      4563      4565      4556      4555      4563      4566
      4556      4555      4567      4568      4556      4555      4567      4569
      4556      4555      4567      4570      4556      4571      4577      4574
      4557      4556      4555      4559      4557      4556      4555      4563
      4557      4556      4555      4567      4557      4556      4571      4572
      4557      4556      4571      4573      4557      4556      4571      4577
      4558      4556      4555      4559      4558      4556      4555      4563
      4558      4556      4555      4567      4558      4556      4571      4572
      4558      4556      4571      4573      4558      4556      4571      4577
      4559      4555      4556      4571      4559      4555      4563      4564
      4559      4555      4563      4565      4559      4555      4563      4566
      4559      4555      4567      4568      4559      4555      4567      4569
      4559      4555      4567      4570      4560      4559      4555      4563
      4560      4559      4555      4567      4561      4559      4555      4563
      4561      4559      4555      4567      4562      4559      4555      4563
      4562      4559      4555      4567      4563      4555      4556      4571
      4563      4555      4567      4568      4563      4555      4567      4569
      4563      4555      4567      4570      4564      4563      4555      4567
      4565      4563      4555      4567      4566      4563      4555      4567
      4567      4555      4556      4571      4571      4577      4574      4575
      4571      4577      4574      4576      4571      4577      4574      4578
      4572      4571      4577      4574      4573      4571      4577      4574
      4574      4578      4579      4580      4574      4578      4579      4581
      4574      4578      4579      4582      4575      4574      4578      4579
      4576      4574      4578      4579      4577      4574      4578      4579
      4578      4579      4582      4583      4578      4579      4582      4584
      4578      4579      4582      4590      4579      4582      4584      4585
      4579      4582      4590      4591      4579      4582      4590      4592
      4579      4582      4590      4593      4580      4579      4582      4583
      4580      4579      4582      4584      4580      4579      4582      4590
      4581      4579      4582      4583      4581      4579      4582      4584
      4581      4579      4582      4590      4582      4584      4585      4586
      4582      4584      4585      4587      4582      4590      4593      4594
      4583      4582      4584      4585      4583      4582      4590      4591
      4583      4582      4590      4592      4583      4582      4590      4593
      4584      4582      4590      4591      4584      4582      4590      4592
      4584      4582      4590      4593      4584      4585      4587      4588
      4584      4585      4587      4589      4584      4585      4587      4599
      4585      4584      4582      4590      4585      4587      4599      4600
      4585      4587      4599      4601      4585      4587      4599      4602
      4586      4585      4587      4588      4586      4585      4587      4589
      4586      4585      4587      4599      4587      4599      4602      4603
      4587      4599      4602      4604      4587      4599      4602      4605
      4588      4587      4599      4600      4588      4587      4599      4601
      4588      4587      4599      4602      4589      4587      4599      4600
      4589      4587      4599      4601      4589      4587      4599      4602
      4590      4593      4594      4595      4590      4593      4594      4596
      4591      4590      4593      4594      4592      4590      4593      4594
      4593      4594      4596      4597      4593      4594      4596      4598
      4593      4594      4596      4646      4594      4596      4646      4647
      4594      4596      4646      4648      4594      4596      4646      4649
      4595      4594      4596      4597      4595      4594      4596      4598
      4595      4594      4596      4646      4596      4646      4649      4650
      4596      4646      4649      4651      4596      4646      4649      4652
      4597      4596      4646      4647      4597      4596      4646      4648
      4597      4596      4646      4649      4598      4596      4646      4647
      4598      4596      4646      4648      4598      4596      4646      4649
      4599      4602      4605      4606      4599      4602      4605      4607
      4599      4602      4605      4608      4600      4599      4602      4603
      4600      4599      4602      4604      4600      4599      4602      4605
      4601      4599      4602      4603      4601      4599      4602      4604
      4601      4599      4602      4605      4602      4605      4608      4609
      4602      4605      4608      4610      4602      4605      4608      4611
      4603      4602      4605      4606      4603      4602      4605      4607
      4603      4602      4605      4608      4604      4602      4605      4606
      4604      4602      4605      4607      4604      4602      4605      4608
      4605      4608      4611      4612      4605      4608      4611      4613
      4605      4608      4611      4614      4606      4605      4608      4609
      4606      4605      4608      4610      4606      4605      4608      4611
      4607      4605      4608      4609      4607      4605      4608      4610
      4607      4605      4608      4611      4608      4611      4614      4615
      4608      4611      4614      4616      4608      4611      4614      4617
      4609      4608      4611      4612      4609      4608      4611      4613
      4609      4608      4611      4614      4610      4608      4611      4612
      4610      4608      4611      4613      4610      4608      4611      4614
      4611      4614      4617      4618      4611      4614      4617      4619
      4612      4611      4614      4615      4612      4611      4614      4616
      4612      4611      4614      4617      4613      4611      4614      4615
      4613      4611      4614      4616      4613      4611      4614      4617
      4614      4617      4619      4620      4614      4617      4619      4621
      4615      4614      4617      4618      4615      4614      4617      4619
      4616      4614      4617      4618      4616      4614      4617      4619
      4617      4619      4621      4622      4617      4619      4621      4623
      4617      4619      4621      4624      4618      4617      4619      4620
      4618      4617      4619      4621      4619      4621      4624      4625
      4619      4621      4624      4626      4619      4621      4624      4627
      4620      4619      4621      4622      4620      4619      4621      4623
      4620      4619      4621      4624      4621      4624      4627      4628
      4621      4624      4627      4629      4621      4624      4627      4630
      4622      4621      4624      4625      4622      4621      4624      4626
      4622      4621      4624      4627      4623      4621      4624      4625
      4623      4621      4624      4626      4623      4621      4624      4627
      4624      4627      4630      4631      4624      4627      4630      4632
      4624      4627      4630      4633      4625      4624      4627      4628
      4625      4624      4627      4629      4625      4624      4627      4630
      4626      4624      4627      4628      4626      4624      4627      4629
      4626      4624      4627      4630      4627      4630      4633      4634
      4627      4630      4633      4635      4627      4630      4633      4636
      4628      4627      4630      4631      4628      4627      4630      4632
      4628      4627      4630      4633      4629      4627      4630      4631
      4629      4627      4630      4632      4629      4627      4630      4633
      4630      4633      4636      4637      4630      4633      4636      4638
      4630      4633      4636      4639      4631      4630      4633      4634
      4631      4630      4633      4635      4631      4630      4633      4636
      4632      4630      4633      4634      4632      4630      4633      4635
      4632      4630      4633      4636      4633      4636      4639      4640
      4633      4636      4639      4641      4633      4636      4639      4642
      4634      4633      4636      4637      4634      4633      4636      4638
      4634      4633      4636      4639      4635      4633      4636      4637
      4635      4633      4636      4638      4635      4633      4636      4639
      4636      4639      4642      4643      4636      4639      4642      4644
      4636      4639      4642      4645      4637      4636      4639      4640
      4637      4636      4639      4641      4637      4636      4639      4642
      4638      4636      4639      4640      4638      4636      4639      4641
      4638      4636      4639      4642      4640      4639      4642      4643
      4640      4639      4642      4644      4640      4639      4642      4645
      4641      4639      4642      4643      4641      4639      4642      4644
      4641      4639      4642      4645      4646      4649      4652      4653
      4646      4649      4652      4654      4646      4649      4652      4655
      4647      4646      4649      4650      4647      4646      4649      4651
      4647      4646      4649      4652      4648      4646      4649      4650
      4648      4646      4649      4651      4648      4646      4649      4652
      4649      4652      4655      4656      4649      4652      4655      4657
      4649      4652      4655      4658      4650      4649      4652      4653
      4650      4649      4652      4654      4650      4649      4652      4655
      4651      4649      4652      4653      4651      4649      4652      4654
      4651      4649      4652      4655      4652      4655      4658      4659
      4652      4655      4658      4660      4652      4655      4658      4661
      4653      4652      4655      4656      4653      4652      4655      4657
      4653      4652      4655      4658      4654      4652      4655      4656
      4654      4652      4655      4657      4654      4652      4655      4658
      4655      4658      4661      4662      4655      4658      4661      4663
      4655      4658      4661      4664      4656      4655      4658      4659
      4656      4655      4658      4660      4656      4655      4658      4661
      4657      4655      4658      4659      4657      4655      4658      4660
      4657      4655      4658      4661      4658      4661      4664      4665
      4658      4661      4664      4666      4659      4658      4661      4662
      4659      4658      4661      4663      4659      4658      4661      4664
      4660      4658      4661      4662      4660      4658      4661      4663
      4660      4658      4661      4664      4661      4664      4666      4667
      4661      4664      4666      4668      4662      4661      4664      4665
      4662      4661      4664      4666      4663      4661      4664      4665
      4663      4661      4664      4666      4664      4666      4668      4669
      4664      4666      4668      4670      4664      4666      4668      4671
      4665      4664      4666      4667      4665      4664      4666      4668
      4666      4668      4671      4672      4666      4668      4671      4673
      4666      4668      4671      4674      4667      4666      4668      4669
      4667      4666      4668      4670      4667      4666      4668      4671
      4668      4671      4674      4675      4668      4671      4674      4676
      4668      4671      4674      4677      4669      4668      4671      4672
      4669      4668      4671      4673      4669      4668      4671      4674
      4670      4668      4671      4672      4670      4668      4671      4673
      4670      4668      4671      4674      4671      4674      4677      4678
      4671      4674      4677      4679      4671      4674      4677      4680
      4672      4671      4674      4675      4672      4671      4674      4676
      4672      4671      4674      4677      4673      4671      4674      4675
      4673      4671      4674      4676      4673      4671      4674      4677
      4674      4677      4680      4681      4674      4677      4680      4682
      4674      4677      4680      4683      4675      4674      4677      4678
      4675      4674      4677      4679      4675      4674      4677      4680
      4676      4674      4677      4678      4676      4674      4677      4679
      4676      4674      4677      4680      4677      4680      4683      4684
      4677      4680      4683      4685      4677      4680      4683      4686
      4678      4677      4680      4681      4678      4677      4680      4682
      4678      4677      4680      4683      4679      4677      4680      4681
      4679      4677      4680      4682      4679      4677      4680      4683
      4680      4683      4686      4687      4680      4683      4686      4688
      4680      4683      4686      4689      4681      4680      4683      4684
      4681      4680      4683      4685      4681      4680      4683      4686
      4682      4680      4683      4684      4682      4680      4683      4685
      4682      4680      4683      4686      4683      4686      4689      4690
      4683      4686      4689      4691      4683      4686      4689      4692
      4684      4683      4686      4687      4684      4683      4686      4688
      4684      4683      4686      4689      4685      4683      4686      4687
      4685      4683      4686      4688      4685      4683      4686      4689
      4687      4686      4689      4690      4687      4686      4689      4691
      4687      4686      4689      4692      4688      4686      4689      4690
      4688      4686      4689      4691      4688      4686      4689      4692
      4693      4694      4709      4710      4693      4694      4709      4711
      4693      4694      4709      4715      4694      4693      4697      4698
      4694      4693      4697      4699      4694      4693      4697      4700
      4694      4693      4701      4702      4694      4693      4701      4703
      4694      4693      4701      4704      4694      4693      4705      4706
      4694      4693      4705      4707      4694      4693      4705      4708
      4694      4709      4715      4712      4695      4694      4693      4697
      4695      4694      4693      4701      4695      4694      4693      4705
      4695      4694      4709      4710      4695      4694      4709      4711
      4695      4694      4709      4715      4696      4694      4693      4697
      4696      4694      4693      4701      4696      4694      4693      4705
      4696      4694      4709      4710      4696      4694      4709      4711
      4696      4694      4709      4715      4697      4693      4694      4709
      4697      4693      4701      4702      4697      4693      4701      4703
      4697      4693      4701      4704      4697      4693      4705      4706
      4697      4693      4705      4707      4697      4693      4705      4708
      4698      4697      4693      4701      4698      4697      4693      4705
      4699      4697      4693      4701      4699      4697      4693      4705
      4700      4697      4693      4701      4700      4697      4693      4705
      4701      4693      4694      4709      4701      4693      4705      4706
      4701      4693      4705      4707      4701      4693      4705      4708
      4702      4701      4693      4705      4703      4701      4693      4705
      4704      4701      4693      4705      4705      4693      4694      4709
      4709      4715      4712      4713      4709      4715      4712      4714
      4709      4715      4712      4716      4710      4709      4715      4712
      4711      4709      4715      4712      4712      4716      4717      4718
      4712      4716      4717      4719      4712      4716      4717      4720
      4713      4712      4716      4717      4714      4712      4716      4717
      4715      4712      4716      4717      4716      4717      4720      4721
      4716      4717      4720      4722      4716      4717      4720      4728
      4717      4720      4722      4723      4717      4720      4728      4729
      4717      4720      4728      4730      4717      4720      4728      4731
      4718      4717      4720      4721      4718      4717      4720      4722
      4718      4717      4720      4728      4719      4717      4720      4721
      4719      4717      4720      4722      4719      4717      4720      4728
      4720      4722      4723      4724      4720      4722      4723      4725
      4720      4728      4731      4732      4721      4720      4722      4723
      4721      4720      4728      4729      4721      4720      4728      4730
      4721      4720      4728      4731      4722      4720      4728      4729
      4722      4720      4728      4730      4722      4720      4728      4731
      4722      4723      4725      4726      4722      4723      4725      4727
      4722      4723      4725      4737      4723      4722      4720      4728
      4723      4725      4737      4738      4723      4725      4737      4739
      4723      4725      4737      4740      4724      4723      4725      4726
      4724      4723      4725      4727      4724      4723      4725      4737
      4725      4737      4740      4741      4725      4737      4740      4742
      4725      4737      4740      4743      4726      4725      4737      4738
      4726      4725      4737      4739      4726      4725      4737      4740
      4727      4725      4737      4738      4727      4725      4737      4739
      4727      4725      4737      4740      4728      4731      4732      4733
      4728      4731      4732      4734      4729      4728      4731      4732
      4730      4728      4731      4732      4731      4732      4734      4735
      4731      4732      4734      4736      4731      4732      4734      4784
      4732      4734      4784      4785      4732      4734      4784      4786
      4732      4734      4784      4787      4733      4732      4734      4735
      4733      4732      4734      4736      4733      4732      4734      4784
      4734      4784      4787      4788      4734      4784      4787      4789
      4734      4784      4787      4790      4735      4734      4784      4785
      4735      4734      4784      4786      4735      4734      4784      4787
      4736      4734      4784      4785      4736      4734      4784      4786
      4736      4734      4784      4787      4737      4740      4743      4744
      4737      4740      4743      4745      4737      4740      4743      4746
      4738      4737      4740      4741      4738      4737      4740      4742
      4738      4737      4740      4743      4739      4737      4740      4741
      4739      4737      4740      4742      4739      4737      4740      4743
      4740      4743      4746      4747      4740      4743      4746      4748
      4740      4743      4746      4749      4741      4740      4743      4744
      4741      4740      4743      4745      4741      4740      4743      4746
      4742      4740      4743      4744      4742      4740      4743      4745
      4742      4740      4743      4746      4743      4746      4749      4750
      4743      4746      4749      4751      4743      4746      4749      4752
      4744      4743      4746      4747      4744      4743      4746      4748
      4744      4743      4746      4749      4745      4743      4746      4747
      4745      4743      4746      4748      4745      4743      4746      4749
      4746      4749      4752      4753      4746      4749      4752      4754
      4746      4749      4752      4755      4747      4746      4749      4750
      4747      4746      4749      4751      4747      4746      4749      4752
      4748      4746      4749      4750      4748      4746      4749      4751
      4748      4746      4749      4752      4749      4752      4755      4756
      4749      4752      4755      4757      4750      4749      4752      4753
      4750      4749      4752      4754      4750      4749      4752      4755
      4751      4749      4752      4753      4751      4749      4752      4754
      4751      4749      4752      4755      4752      4755      4757      4758
      4752      4755      4757      4759      4753      4752      4755      4756
      4753      4752      4755      4757      4754      4752      4755      4756
      4754      4752      4755      4757      4755      4757      4759      4760
      4755      4757      4759      4761      4755      4757      4759      4762
      4756      4755      4757      4758      4756      4755      4757      4759
      4757      4759      4762      4763      4757      4759      4762      4764
      4757      4759      4762      4765      4758      4757      4759      4760
      4758      4757      4759      4761      4758      4757      4759      4762
      4759      4762      4765      4766      4759      4762      4765      4767
      4759      4762      4765      4768      4760      4759      4762      4763
      4760      4759      4762      4764      4760      4759      4762      4765
      4761      4759      4762      4763      4761      4759      4762      4764
      4761      4759      4762      4765      4762      4765      4768      4769
      4762      4765      4768      4770      4762      4765      4768      4771
      4763      4762      4765      4766      4763      4762      4765      4767
      4763      4762      4765      4768      4764      4762      4765      4766
      4764      4762      4765      4767      4764      4762      4765      4768
      4765      4768      4771      4772      4765      4768      4771      4773
      4765      4768      4771      4774      4766      4765      4768      4769
      4766      4765      4768      4770      4766      4765      4768      4771
      4767      4765      4768      4769      4767      4765      4768      4770
      4767      4765      4768      4771      4768      4771      4774      4775
      4768      4771      4774      4776      4768      4771      4774      4777
      4769      4768      4771      4772      4769      4768      4771      4773
      4769      4768      4771      4774      4770      4768      4771      4772
      4770      4768      4771      4773      4770      4768      4771      4774
      4771      4774      4777      4778      4771      4774      4777      4779
      4771      4774      4777      4780      4772      4771      4774      4775
      4772      4771      4774      4776      4772      4771      4774      4777
      4773      4771      4774      4775      4773      4771      4774      4776
      4773      4771      4774      4777      4774      4777      4780      4781
      4774      4777      4780      4782      4774      4777      4780      4783
      4775      4774      4777      4778      4775      4774      4777      4779
      4775      4774      4777      4780      4776      4774      4777      4778
      4776      4774      4777      4779      4776      4774      4777      4780
      4778      4777      4780      4781      4778      4777      4780      4782
      4778      4777      4780      4783      4779      4777      4780      4781
      4779      4777      4780      4782      4779      4777      4780      4783
      4784      4787      4790      4791      4784      4787      4790      4792
      4784      4787      4790      4793      4785      4784      4787      4788
      4785      4784      4787      4789      4785      4784      4787      4790
      4786      4784      4787      4788      4786      4784      4787      4789
      4786      4784      4787      4790      4787      4790      4793      4794
      4787      4790      4793      4795      4787      4790      4793      4796
      4788      4787      4790      4791      4788      4787      4790      4792
      4788      4787      4790      4793      4789      4787      4790      4791
      4789      4787      4790      4792      4789      4787      4790      4793
      4790      4793      4796      4797      4790      4793      4796      4798
      4790      4793      4796      4799      4791      4790      4793      4794
      4791      4790      4793      4795      4791      4790      4793      4796
      4792      4790      4793      4794      4792      4790      4793      4795
      4792      4790      4793      4796      4793      4796      4799      4800
      4793      4796      4799      4801      4793      4796      4799      4802
      4794      4793      4796      4797      4794      4793      4796      4798
      4794      4793      4796      4799      4795      4793      4796      4797
      4795      4793      4796      4798      4795      4793      4796      4799
      4796      4799      4802      4803      4796      4799      4802      4804
      4797      4796      4799      4800      4797      4796      4799      4801
      4797      4796      4799      4802      4798      4796      4799      4800
      4798      4796      4799      4801      4798      4796      4799      4802
      4799      4802      4804      4805      4799      4802      4804      4806
      4800      4799      4802      4803      4800      4799      4802      4804
      4801      4799      4802      4803      4801      4799      4802      4804
      4802      4804      4806      4807      4802      4804      4806      4808
      4802      4804      4806      4809      4803      4802      4804      4805
      4803      4802      4804      4806      4804      4806      4809      4810
      4804      4806      4809      4811      4804      4806      4809      4812
      4805      4804      4806      4807      4805      4804      4806      4808
      4805      4804      4806      4809      4806      4809      4812      4813
      4806      4809      4812      4814      4806      4809      4812      4815
      4807      4806      4809      4810      4807      4806      4809      4811
      4807      4806      4809      4812      4808      4806      4809      4810
      4808      4806      4809      4811      4808      4806      4809      4812
      4809      4812      4815      4816      4809      4812      4815      4817
      4809      4812      4815      4818      4810      4809      4812      4813
      4810      4809      4812      4814      4810      4809      4812      4815
      4811      4809      4812      4813      4811      4809      4812      4814
      4811      4809      4812      4815      4812      4815      4818      4819
      4812      4815      4818      4820      4812      4815      4818      4821
      4813      4812      4815      4816      4813      4812      4815      4817
      4813      4812      4815      4818      4814      4812      4815      4816
      4814      4812      4815      4817      4814      4812      4815      4818
      4815      4818      4821      4822      4815      4818      4821      4823
      4815      4818      4821      4824      4816      4815      4818      4819
      4816      4815      4818      4820      4816      4815      4818      4821
      4817      4815      4818      4819      4817      4815      4818      4820
      4817      4815      4818      4821      4818      4821      4824      4825
      4818      4821      4824      4826      4818      4821      4824      4827
      4819      4818      4821      4822      4819      4818      4821      4823
      4819      4818      4821      4824      4820      4818      4821      4822
      4820      4818      4821      4823      4820      4818      4821      4824
      4821      4824      4827      4828      4821      4824      4827      4829
      4821      4824      4827      4830      4822      4821      4824      4825
      4822      4821      4824      4826      4822      4821      4824      4827
      4823      4821      4824      4825      4823      4821      4824      4826
      4823      4821      4824      4827      4825      4824      4827      4828
      4825      4824      4827      4829      4825      4824      4827      4830
      4826      4824      4827      4828      4826      4824      4827      4829
      4826      4824      4827      4830      4831      4832      4847      4848
      4831      4832      4847      4849      4831      4832      4847      4853
      4832      4831      4835      4836      4832      4831      4835      4837
      4832      4831      4835      4838      4832      4831      4839      4840
      4832      4831      4839      4841      4832      4831      4839      4842
      4832      4831      4843      4844      4832      4831      4843      4845
      4832      4831      4843      4846      4832      4847      4853      4850
      4833      4832      4831      4835      4833      4832      4831      4839
      4833      4832      4831      4843      4833      4832      4847      4848
      4833      4832      4847      4849      4833      4832      4847      4853
      4834      4832      4831      4835      4834      4832      4831      4839
      4834      4832      4831      4843      4834      4832      4847      4848
      4834      4832      4847      4849      4834      4832      4847      4853
      4835      4831      4832      4847      4835      4831      4839      4840
      4835      4831      4839      4841      4835      4831      4839      4842
      4835      4831      4843      4844      4835      4831      4843      4845
      4835      4831      4843      4846      4836      4835      4831      4839
      4836      4835      4831      4843      4837      4835      4831      4839
      4837      4835      4831      4843      4838      4835      4831      4839
      4838      4835      4831      4843      4839      4831      4832      4847
      4839      4831      4843      4844      4839      4831      4843      4845
      4839      4831      4843      4846      4840      4839      4831      4843
      4841      4839      4831      4843      4842      4839      4831      4843
      4843      4831      4832      4847      4847      4853      4850      4851
      4847      4853      4850      4852      4847      4853      4850      4854
      4848      4847      4853      4850      4849      4847      4853      4850
      4850      4854      4855      4856      4850      4854      4855      4857
      4850      4854      4855      4858      4851      4850      4854      4855
      4852      4850      4854      4855      4853      4850      4854      4855
      4854      4855      4858      4859      4854      4855      4858      4860
      4854      4855      4858      4866      4855      4858      4860      4861
      4855      4858      4866      4867      4855      4858      4866      4868
      4855      4858      4866      4869      4856      4855      4858      4859
      4856      4855      4858      4860      4856      4855      4858      4866
      4857      4855      4858      4859      4857      4855      4858      4860
      4857      4855      4858      4866      4858      4860      4861      4862
      4858      4860      4861      4863      4858      4866      4869      4870
      4859      4858      4860      4861      4859      4858      4866      4867
      4859      4858      4866      4868      4859      4858      4866      4869
      4860      4858      4866      4867      4860      4858      4866      4868
      4860      4858      4866      4869      4860      4861      4863      4864
      4860      4861      4863      4865      4860      4861      4863      4875
      4861      4860      4858      4866      4861      4863      4875      4876
      4861      4863      4875      4877      4861      4863      4875      4878
      4862      4861      4863      4864      4862      4861      4863      4865
      4862      4861      4863      4875      4863      4875      4878      4879
      4863      4875      4878      4880      4863      4875      4878      4881
      4864      4863      4875      4876      4864      4863      4875      4877
      4864      4863      4875      4878      4865      4863      4875      4876
      4865      4863      4875      4877      4865      4863      4875      4878
      4866      4869      4870      4871      4866      4869      4870      4872
      4867      4866      4869      4870      4868      4866      4869      4870
      4869      4870      4872      4873      4869      4870      4872      4874
      4869      4870      4872      4922      4870      4872      4922      4923
      4870      4872      4922      4924      4870      4872      4922      4925
      4871      4870      4872      4873      4871      4870      4872      4874
      4871      4870      4872      4922      4872      4922      4925      4926
      4872      4922      4925      4927      4872      4922      4925      4928
      4873      4872      4922      4923      4873      4872      4922      4924
      4873      4872      4922      4925      4874      4872      4922      4923
      4874      4872      4922      4924      4874      4872      4922      4925
      4875      4878      4881      4882      4875      4878      4881      4883
      4875      4878      4881      4884      4876      4875      4878      4879
      4876      4875      4878      4880      4876      4875      4878      4881
      4877      4875      4878      4879      4877      4875      4878      4880
      4877      4875      4878      4881      4878      4881      4884      4885
      4878      4881      4884      4886      4878      4881      4884      4887
      4879      4878      4881      4882      4879      4878      4881      4883
      4879      4878      4881      4884      4880      4878      4881      4882
      4880      4878      4881      4883      4880      4878      4881      4884
      4881      4884      4887      4888      4881      4884      4887      4889
      4881      4884      4887      4890      4882      4881      4884      4885
      4882      4881      4884      4886      4882      4881      4884      4887
      4883      4881      4884      4885      4883      4881      4884      4886
      4883      4881      4884      4887      4884      4887      4890      4891
      4884      4887      4890      4892      4884      4887      4890      4893
      4885      4884      4887      4888      4885      4884      4887      4889
      4885      4884      4887      4890      4886      4884      4887      4888
      4886      4884      4887      4889      4886      4884      4887      4890
      4887      4890      4893      4894      4887      4890      4893      4895
      4888      4887      4890      4891      4888      4887      4890      4892
      4888      4887      4890      4893      4889      4887      4890      4891
      4889      4887      4890      4892      4889      4887      4890      4893
      4890      4893      4895      4896      4890      4893      4895      4897
      4891      4890      4893      4894      4891      4890      4893      4895
      4892      4890      4893      4894      4892      4890      4893      4895
      4893      4895      4897      4898      4893      4895      4897      4899
      4893      4895      4897      4900      4894      4893      4895      4896
      4894      4893      4895      4897      4895      4897      4900      4901
      4895      4897      4900      4902      4895      4897      4900      4903
      4896      4895      4897      4898      4896      4895      4897      4899
      4896      4895      4897      4900      4897      4900      4903      4904
      4897      4900      4903      4905      4897      4900      4903      4906
      4898      4897      4900      4901      4898      4897      4900      4902
      4898      4897      4900      4903      4899      4897      4900      4901
      4899      4897      4900      4902      4899      4897      4900      4903
      4900      4903      4906      4907      4900      4903      4906      4908
      4900      4903      4906      4909      4901      4900      4903      4904
      4901      4900      4903      4905      4901      4900      4903      4906
      4902      4900      4903      4904      4902      4900      4903      4905
      4902      4900      4903      4906      4903      4906      4909      4910
      4903      4906      4909      4911      4903      4906      4909      4912
      4904      4903      4906      4907      4904      4903      4906      4908
      4904      4903      4906      4909      4905      4903      4906      4907
      4905      4903      4906      4908      4905      4903      4906      4909
      4906      4909      4912      4913      4906      4909      4912      4914
      4906      4909      4912      4915      4907      4906      4909      4910
      4907      4906      4909      4911      4907      4906      4909      4912
      4908      4906      4909      4910      4908      4906      4909      4911
      4908      4906      4909      4912      4909      4912      4915      4916
      4909      4912      4915      4917      4909      4912      4915      4918
      4910      4909      4912      4913      4910      4909      4912      4914
      4910      4909      4912      4915      4911      4909      4912      4913
      4911      4909      4912      4914      4911      4909      4912      4915
      4912      4915      4918      4919      4912      4915      4918      4920
      4912      4915      4918      4921      4913      4912      4915      4916
      4913      4912      4915      4917      4913      4912      4915      4918
      4914      4912      4915      4916      4914      4912      4915      4917
      4914      4912      4915      4918      4916      4915      4918      4919
      4916      4915      4918      4920      4916      4915      4918      4921
      4917      4915      4918      4919      4917      4915      4918      4920
      4917      4915      4918      4921      4922      4925      4928      4929
      4922      4925      4928      4930      4922      4925      4928      4931
      4923      4922      4925      4926      4923      4922      4925      4927
      4923      4922      4925      4928      4924      4922      4925      4926
      4924      4922      4925      4927      4924      4922      4925      4928
      4925      4928      4931      4932      4925      4928      4931      4933
      4925      4928      4931      4934      4926      4925      4928      4929
      4926      4925      4928      4930      4926      4925      4928      4931
      4927      4925      4928      4929      4927      4925      4928      4930
      4927      4925      4928      4931      4928      4931      4934      4935
      4928      4931      4934      4936      4928      4931      4934      4937
      4929      4928      4931      4932      4929      4928      4931      4933
      4929      4928      4931      4934      4930      4928      4931      4932
      4930      4928      4931      4933      4930      4928      4931      4934
      4931      4934      4937      4938      4931      4934      4937      4939
      4931      4934      4937      4940      4932      4931      4934      4935
      4932      4931      4934      4936      4932      4931      4934      4937
      4933      4931      4934      4935      4933      4931      4934      4936
      4933      4931      4934      4937      4934      4937      4940      4941
      4934      4937      4940      4942      4935      4934      4937      4938
      4935      4934      4937      4939      4935      4934      4937      4940
      4936      4934      4937      4938      4936      4934      4937      4939
      4936      4934      4937      4940      4937      4940      4942      4943
      4937      4940      4942      4944      4938      4937      4940      4941
      4938      4937      4940      4942      4939      4937      4940      4941
      4939      4937      4940      4942      4940      4942      4944      4945
      4940      4942      4944      4946      4940      4942      4944      4947
      4941      4940      4942      4943      4941      4940      4942      4944
      4942      4944      4947      4948      4942      4944      4947      4949
      4942      4944      4947      4950      4943      4942      4944      4945
      4943      4942      4944      4946      4943      4942      4944      4947
      4944      4947      4950      4951      4944      4947      4950      4952
      4944      4947      4950      4953      4945      4944      4947      4948
      4945      4944      4947      4949      4945      4944      4947      4950
      4946      4944      4947      4948      4946      4944      4947      4949
      4946      4944      4947      4950      4947      4950      4953      4954
      4947      4950      4953      4955      4947      4950      4953      4956
      4948      4947      4950      4951      4948      4947      4950      4952
      4948      4947      4950      4953      4949      4947      4950      4951
      4949      4947      4950      4952      4949      4947      4950      4953
      4950      4953      4956      4957      4950      4953      4956      4958
      4950      4953      4956      4959      4951      4950      4953      4954
      4951      4950      4953      4955      4951      4950      4953      4956
      4952      4950      4953      4954      4952      4950      4953      4955
      4952      4950      4953      4956      4953      4956      4959      4960
      4953      4956      4959      4961      4953      4956      4959      4962
      4954      4953      4956      4957      4954      4953      4956      4958
      4954      4953      4956      4959      4955      4953      4956      4957
      4955      4953      4956      4958      4955      4953      4956      4959
      4956      4959      4962      4963      4956      4959      4962      4964
      4956      4959      4962      4965      4957      4956      4959      4960
      4957      4956      4959      4961      4957      4956      4959      4962
      4958      4956      4959      4960      4958      4956      4959      4961
      4958      4956      4959      4962      4959      4962      4965      4966
      4959      4962      4965      4967      4959      4962      4965      4968
      4960      4959      4962      4963      4960      4959      4962      4964
      4960      4959      4962      4965      4961      4959      4962      4963
      4961      4959      4962      4964      4961      4959      4962      4965
      4963      4962      4965      4966      4963      4962      4965      4967
      4963      4962      4965      4968      4964      4962      4965      4966
      4964      4962      4965      4967      4964      4962      4965      4968
      4969      4970      4985      4986      4969      4970      4985      4987
      4969      4970      4985      4991      4970      4969      4973      4974
      4970      4969      4973      4975      4970      4969      4973      4976
      4970      4969      4977      4978      4970      4969      4977      4979
      4970      4969      4977      4980      4970      4969      4981      4982
      4970      4969      4981      4983      4970      4969      4981      4984
      4970      4985      4991      4988      4971      4970      4969      4973
      4971      4970      4969      4977      4971      4970      4969      4981
      4971      4970      4985      4986      4971      4970      4985      4987
      4971      4970      4985      4991      4972      4970      4969      4973
      4972      4970      4969      4977      4972      4970      4969      4981
      4972      4970      4985      4986      4972      4970      4985      4987
      4972      4970      4985      4991      4973      4969      4970      4985
      4973      4969      4977      4978      4973      4969      4977      4979
      4973      4969      4977      4980      4973      4969      4981      4982
      4973      4969      4981      4983      4973      4969      4981      4984
      4974      4973      4969      4977      4974      4973      4969      4981
      4975      4973      4969      4977      4975      4973      4969      4981
      4976      4973      4969      4977      4976      4973      4969      4981
      4977      4969      4970      4985      4977      4969      4981      4982
      4977      4969      4981      4983      4977      4969      4981      4984
      4978      4977      4969      4981      4979      4977      4969      4981
      4980      4977      4969      4981      4981      4969      4970      4985
      4985      4991      4988      4989      4985      4991      4988      4990
      4985      4991      4988      4992      4986      4985      4991      4988
      4987      4985      4991      4988      4988      4992      4993      4994
      4988      4992      4993      4995      4988      4992      4993      4996
      4989      4988      4992      4993      4990      4988      4992      4993
      4991      4988      4992      4993      4992      4993      4996      4997
      4992      4993      4996      4998      4992      4993      4996      5004
      4993      4996      4998      4999      4993      4996      5004      5005
      4993      4996      5004      5006      4993      4996      5004      5007
      4994      4993      4996      4997      4994      4993      4996      4998
      4994      4993      4996      5004      4995      4993      4996      4997
      4995      4993      4996      4998      4995      4993      4996      5004
      4996      4998      4999      5000      4996      4998      4999      5001
      4996      5004      5007      5008      4997      4996      4998      4999
      4997      4996      5004      5005      4997      4996      5004      5006
      4997      4996      5004      5007      4998      4996      5004      5005
      4998      4996      5004      5006      4998      4996      5004      5007
      4998      4999      5001      5002      4998      4999      5001      5003
      4998      4999      5001      5013      4999      4998      4996      5004
      4999      5001      5013      5014      4999      5001      5013      5015
      4999      5001      5013      5016      5000      4999      5001      5002
      5000      4999      5001      5003      5000      4999      5001      5013
      5001      5013      5016      5017      5001      5013      5016      5018
      5001      5013      5016      5019      5002      5001      5013      5014
      5002      5001      5013      5015      5002      5001      5013      5016
      5003      5001      5013      5014      5003      5001      5013      5015
      5003      5001      5013      5016      5004      5007      5008      5009
      5004      5007      5008      5010      5005      5004      5007      5008
      5006      5004      5007      5008      5007      5008      5010      5011
      5007      5008      5010      5012      5007      5008      5010      5060
      5008      5010      5060      5061      5008      5010      5060      5062
      5008      5010      5060      5063      5009      5008      5010      5011
      5009      5008      5010      5012      5009      5008      5010      5060
      5010      5060      5063      5064      5010      5060      5063      5065
      5010      5060      5063      5066      5011      5010      5060      5061
      5011      5010      5060      5062      5011      5010      5060      5063
      5012      5010      5060      5061      5012      5010      5060      5062
      5012      5010      5060      5063      5013      5016      5019      5020
      5013      5016      5019      5021      5013      5016      5019      5022
      5014      5013      5016      5017      5014      5013      5016      5018
      5014      5013      5016      5019      5015      5013      5016      5017
      5015      5013      5016      5018      5015      5013      5016      5019
      5016      5019      5022      5023      5016      5019      5022      5024
      5016      5019      5022      5025      5017      5016      5019      5020
      5017      5016      5019      5021      5017      5016      5019      5022
      5018      5016      5019      5020      5018      5016      5019      5021
      5018      5016      5019      5022      5019      5022      5025      5026
      5019      5022      5025      5027      5019      5022      5025      5028
      5020      5019      5022      5023      5020      5019      5022      5024
      5020      5019      5022      5025      5021      5019      5022      5023
      5021      5019      5022      5024      5021      5019      5022      5025
      5022      5025      5028      5029      5022      5025      5028      5030
      5022      5025      5028      5031      5023      5022      5025      5026
      5023      5022      5025      5027      5023      5022      5025      5028
      5024      5022      5025      5026      5024      5022      5025      5027
      5024      5022      5025      5028      5025      5028      5031      5032
      5025      5028      5031      5033      5026      5025      5028      5029
      5026      5025      5028      5030      5026      5025      5028      5031
      5027      5025      5028      5029      5027      5025      5028      5030
      5027      5025      5028      5031      5028      5031      5033      5034
      5028      5031      5033      5035      5029      5028      5031      5032
      5029      5028      5031      5033      5030      5028      5031      5032
      5030      5028      5031      5033      5031      5033      5035      5036
      5031      5033      5035      5037      5031      5033      5035      5038
      5032      5031      5033      5034      5032      5031      5033      5035
      5033      5035      5038      5039      5033      5035      5038      5040
      5033      5035      5038      5041      5034      5033      5035      5036
      5034      5033      5035      5037      5034      5033      5035      5038
      5035      5038      5041      5042      5035      5038      5041      5043
      5035      5038      5041      5044      5036      5035      5038      5039
      5036      5035      5038      5040      5036      5035      5038      5041
      5037      5035      5038      5039      5037      5035      5038      5040
      5037      5035      5038      5041      5038      5041      5044      5045
      5038      5041      5044      5046      5038      5041      5044      5047
      5039      5038      5041      5042      5039      5038      5041      5043
      5039      5038      5041      5044      5040      5038      5041      5042
      5040      5038      5041      5043      5040      5038      5041      5044
      5041      5044      5047      5048      5041      5044      5047      5049
      5041      5044      5047      5050      5042      5041      5044      5045
      5042      5041      5044      5046      5042      5041      5044      5047
      5043      5041      5044      5045      5043      5041      5044      5046
      5043      5041      5044      5047      5044      5047      5050      5051
      5044      5047      5050      5052      5044      5047      5050      5053
      5045      5044      5047      5048      5045      5044      5047      5049
      5045      5044      5047      5050      5046      5044      5047      5048
      5046      5044      5047      5049      5046      5044      5047      5050
      5047      5050      5053      5054      5047      5050      5053      5055
      5047      5050      5053      5056      5048      5047      5050      5051
      5048      5047      5050      5052      5048      5047      5050      5053
      5049      5047      5050      5051      5049      5047      5050      5052
      5049      5047      5050      5053      5050      5053      5056      5057
      5050      5053      5056      5058      5050      5053      5056      5059
      5051      5050      5053      5054      5051      5050      5053      5055
      5051      5050      5053      5056      5052      5050      5053      5054
      5052      5050      5053      5055      5052      5050      5053      5056
      5054      5053      5056      5057      5054      5053      5056      5058
      5054      5053      5056      5059      5055      5053      5056      5057
      5055      5053      5056      5058      5055      5053      5056      5059
      5060      5063      5066      5067      5060      5063      5066      5068
      5060      5063      5066      5069      5061      5060      5063      5064
      5061      5060      5063      5065      5061      5060      5063      5066
      5062      5060      5063      5064      5062      5060      5063      5065
      5062      5060      5063      5066      5063      5066      5069      5070
      5063      5066      5069      5071      5063      5066      5069      5072
      5064      5063      5066      5067      5064      5063      5066      5068
      5064      5063      5066      5069      5065      5063      5066      5067
      5065      5063      5066      5068      5065      5063      5066      5069
      5066      5069      5072      5073      5066      5069      5072      5074
      5066      5069      5072      5075      5067      5066      5069      5070
      5067      5066      5069      5071      5067      5066      5069      5072
      5068      5066      5069      5070      5068      5066      5069      5071
      5068      5066      5069      5072      5069      5072      5075      5076
      5069      5072      5075      5077      5069      5072      5075      5078
      5070      5069      5072      5073      5070      5069      5072      5074
      5070      5069      5072      5075      5071      5069      5072      5073
      5071      5069      5072      5074      5071      5069      5072      5075
      5072      5075      5078      5079      5072      5075      5078      5080
      5073      5072      5075      5076      5073      5072      5075      5077
      5073      5072      5075      5078      5074      5072      5075      5076
      5074      5072      5075      5077      5074      5072      5075      5078
      5075      5078      5080      5081      5075      5078      5080      5082
      5076      5075      5078      5079      5076      5075      5078      5080
      5077      5075      5078      5079      5077      5075      5078      5080
      5078      5080      5082      5083      5078      5080      5082      5084
      5078      5080      5082      5085      5079      5078      5080      5081
      5079      5078      5080      5082      5080      5082      5085      5086
      5080      5082      5085      5087      5080      5082      5085      5088
      5081      5080      5082      5083      5081      5080      5082      5084
      5081      5080      5082      5085      5082      5085      5088      5089
      5082      5085      5088      5090      5082      5085      5088      5091
      5083      5082      5085      5086      5083      5082      5085      5087
      5083      5082      5085      5088      5084      5082      5085      5086
      5084      5082      5085      5087      5084      5082      5085      5088
      5085      5088      5091      5092      5085      5088      5091      5093
      5085      5088      5091      5094      5086      5085      5088      5089
      5086      5085      5088      5090      5086      5085      5088      5091
      5087      5085      5088      5089      5087      5085      5088      5090
      5087      5085      5088      5091      5088      5091      5094      5095
      5088      5091      5094      5096      5088      5091      5094      5097
      5089      5088      5091      5092      5089      5088      5091      5093
      5089      5088      5091      5094      5090      5088      5091      5092
      5090      5088      5091      5093      5090      5088      5091      5094
      5091      5094      5097      5098      5091      5094      5097      5099
      5091      5094      5097      5100      5092      5091      5094      5095
      5092      5091      5094      5096      5092      5091      5094      5097
      5093      5091      5094      5095      5093      5091      5094      5096
      5093      5091      5094      5097      5094      5097      5100      5101
      5094      5097      5100      5102      5094      5097      5100      5103
      5095      5094      5097      5098      5095      5094      5097      5099
      5095      5094      5097      5100      5096      5094      5097      5098
      5096      5094      5097      5099      5096      5094      5097      5100
      5097      5100      5103      5104      5097      5100      5103      5105
      5097      5100      5103      5106      5098      5097      5100      5101
      5098      5097      5100      5102      5098      5097      5100      5103
      5099      5097      5100      5101      5099      5097      5100      5102
      5099      5097      5100      5103      5101      5100      5103      5104
      5101      5100      5103      5105      5101      5100      5103      5106
      5102      5100      5103      5104      5102      5100      5103      5105
      5102      5100      5103      5106      5107      5108      5123      5124
      5107      5108      5123      5125      5107      5108      5123      5129
      5108      5107      5111      5112      5108      5107      5111      5113
      5108      5107      5111      5114      5108      5107      5115      5116
      5108      5107      5115      5117      5108      5107      5115      5118
      5108      5107      5119      5120      5108      5107      5119      5121
      5108      5107      5119      5122      5108      5123      5129      5126
      5109      5108      5107      5111      5109      5108      5107      5115
      5109      5108      5107      5119      5109      5108      5123      5124
      5109      5108      5123      5125      5109      5108      5123      5129
      5110      5108      5107      5111      5110      5108      5107      5115
      5110      5108      5107      5119      5110      5108      5123      5124
      5110      5108      5123      5125      5110      5108      5123      5129
      5111      5107      5108      5123      5111      5107      5115      5116
      5111      5107      5115      5117      5111      5107      5115      5118
      5111      5107      5119      5120      5111      5107      5119      5121
      5111      5107      5119      5122      5112      5111      5107      5115
      5112      5111      5107      5119      5113      5111      5107      5115
      5113      5111      5107      5119      5114      5111      5107      5115
      5114      5111      5107      5119      5115      5107      5108      5123
      5115      5107      5119      5120      5115      5107      5119      5121
      5115      5107      5119      5122      5116      5115      5107      5119
      5117      5115      5107      5119      5118      5115      5107      5119
      5119      5107      5108      5123      5123      5129      5126      5127
      5123      5129      5126      5128      5123      5129      5126      5130
      5124      5123      5129      5126      5125      5123      5129      5126
      5126      5130      5131      5132      5126      5130      5131      5133
      5126      5130      5131      5134      5127      5126      5130      5131
      5128      5126      5130      5131      5129      5126      5130      5131
      5130      5131      5134      5135      5130      5131      5134      5136
      5130      5131      5134      5142      5131      5134      5136      5137
      5131      5134      5142      5143      5131      5134      5142      5144
      5131      5134      5142      5145      5132      5131      5134      5135
      5132      5131      5134      5136      5132      5131      5134      5142
      5133      5131      5134      5135      5133      5131      5134      5136
      5133      5131      5134      5142      5134      5136      5137      5138
      5134      5136      5137      5139      5134      5142      5145      5146
      5135      5134      5136      5137      5135      5134      5142      5143
      5135      5134      5142      5144      5135      5134      5142      5145
      5136      5134      5142      5143      5136      5134      5142      5144
      5136      5134      5142      5145      5136      5137      5139      5140
      5136      5137      5139      5141      5136      5137      5139      5151
      5137      5136      5134      5142      5137      5139      5151      5152
      5137      5139      5151      5153      5137      5139      5151      5154
      5138      5137      5139      5140      5138      5137      5139      5141
      5138      5137      5139      5151      5139      5151      5154      5155
      5139      5151      5154      5156      5139      5151      5154      5157
      5140      5139      5151      5152      5140      5139      5151      5153
      5140      5139      5151      5154      5141      5139      5151      5152
      5141      5139      5151      5153      5141      5139      5151      5154
      5142      5145      5146      5147      5142      5145      5146      5148
      5143      5142      5145      5146      5144      5142      5145      5146
      5145      5146      5148      5149      5145      5146      5148      5150
      5145      5146      5148      5198      5146      5148      5198      5199
      5146      5148      5198      5200      5146      5148      5198      5201
      5147      5146      5148      5149      5147      5146      5148      5150
      5147      5146      5148      5198      5148      5198      5201      5202
      5148      5198      5201      5203      5148      5198      5201      5204
      5149      5148      5198      5199      5149      5148      5198      5200
      5149      5148      5198      5201      5150      5148      5198      5199
      5150      5148      5198      5200      5150      5148      5198      5201
      5151      5154      5157      5158      5151      5154      5157      5159
      5151      5154      5157      5160      5152      5151      5154      5155
      5152      5151      5154      5156      5152      5151      5154      5157
      5153      5151      5154      5155      5153      5151      5154      5156
      5153      5151      5154      5157      5154      5157      5160      5161
      5154      5157      5160      5162      5154      5157      5160      5163
      5155      5154      5157      5158      5155      5154      5157      5159
      5155      5154      5157      5160      5156      5154      5157      5158
      5156      5154      5157      5159      5156      5154      5157      5160
      5157      5160      5163      5164      5157      5160      5163      5165
      5157      5160      5163      5166      5158      5157      5160      5161
      5158      5157      5160      5162      5158      5157      5160      5163
      5159      5157      5160      5161      5159      5157      5160      5162
      5159      5157      5160      5163      5160      5163      5166      5167
      5160      5163      5166      5168      5160      5163      5166      5169
      5161      5160      5163      5164      5161      5160      5163      5165
      5161      5160      5163      5166      5162      5160      5163      5164
      5162      5160      5163      5165      5162      5160      5163      5166
      5163      5166      5169      5170      5163      5166      5169      5171
      5164      5163      5166      5167      5164      5163      5166      5168
      5164      5163      5166      5169      5165      5163      5166      5167
      5165      5163      5166      5168      5165      5163      5166      5169
      5166      5169      5171      5172      5166      5169      5171      5173
      5167      5166      5169      5170      5167      5166      5169      5171
      5168      5166      5169      5170      5168      5166      5169      5171
      5169      5171      5173      5174      5169      5171      5173      5175
      5169      5171      5173      5176      5170      5169      5171      5172
      5170      5169      5171      5173      5171      5173      5176      5177
      5171      5173      5176      5178      5171      5173      5176      5179
      5172      5171      5173      5174      5172      5171      5173      5175
      5172      5171      5173      5176      5173      5176      5179      5180
      5173      5176      5179      5181      5173      5176      5179      5182
      5174      5173      5176      5177      5174      5173      5176      5178
      5174      5173      5176      5179      5175      5173      5176      5177
      5175      5173      5176      5178      5175      5173      5176      5179
      5176      5179      5182      5183      5176      5179      5182      5184
      5176      5179      5182      5185      5177      5176      5179      5180
      5177      5176      5179      5181      5177      5176      5179      5182
      5178      5176      5179      5180      5178      5176      5179      5181
      5178      5176      5179      5182      5179      5182      5185      5186
      5179      5182      5185      5187      5179      5182      5185      5188
      5180      5179      5182      5183      5180      5179      5182      5184
      5180      5179      5182      5185      5181      5179      5182      5183
      5181      5179      5182      5184      5181      5179      5182      5185
      5182      5185      5188      5189      5182      5185      5188      5190
      5182      5185      5188      5191      5183      5182      5185      5186
      5183      5182      5185      5187      5183      5182      5185      5188
      5184      5182      5185      5186      5184      5182      5185      5187
      5184      5182      5185      5188      5185      5188      5191      5192
      5185      5188      5191      5193      5185      5188      5191      5194
      5186      5185      5188      5189      5186      5185      5188      5190
      5186      5185      5188      5191      5187      5185      5188      5189
      5187      5185      5188      5190      5187      5185      5188      5191
      5188      5191      5194      5195      5188      5191      5194      5196
      5188      5191      5194      5197      5189      5188      5191      5192
      5189      5188      5191      5193      5189      5188      5191      5194
      5190      5188      5191      5192      5190      5188      5191      5193
      5190      5188      5191      5194      5192      5191      5194      5195
      5192      5191      5194      5196      5192      5191      5194      5197
      5193      5191      5194      5195      5193      5191      5194      5196
      5193      5191      5194      5197      5198      5201      5204      5205
      5198      5201      5204      5206      5198      5201      5204      5207
      5199      5198      5201      5202      5199      5198      5201      5203
      5199      5198      5201      5204      5200      5198      5201      5202
      5200      5198      5201      5203      5200      5198      5201      5204
      5201      5204      5207      5208      5201      5204      5207      5209
      5201      5204      5207      5210      5202      5201      5204      5205
      5202      5201      5204      5206      5202      5201      5204      5207
      5203      5201      5204      5205      5203      5201      5204      5206
      5203      5201      5204      5207      5204      5207      5210      5211
      5204      5207      5210      5212      5204      5207      5210      5213
      5205      5204      5207      5208      5205      5204      5207      5209
      5205      5204      5207      5210      5206      5204      5207      5208
      5206      5204      5207      5209      5206      5204      5207      5210
      5207      5210      5213      5214      5207      5210      5213      5215
      5207      5210      5213      5216      5208      5207      5210      5211
      5208      5207      5210      5212      5208      5207      5210      5213
      5209      5207      5210      5211      5209      5207      5210      5212
      5209      5207      5210      5213      5210      5213      5216      5217
      5210      5213      5216      5218      5211      5210      5213      5214
      5211      5210      5213      5215      5211      5210      5213      5216
      5212      5210      5213      5214      5212      5210      5213      5215
      5212      5210      5213      5216      5213      5216      5218      5219
      5213      5216      5218      5220      5214      5213      5216      5217
      5214      5213      5216      5218      5215      5213      5216      5217
      5215      5213      5216      5218      5216      5218      5220      5221
      5216      5218      5220      5222      5216      5218      5220      5223
      5217      5216      5218      5219      5217      5216      5218      5220
      5218      5220      5223      5224      5218      5220      5223      5225
      5218      5220      5223      5226      5219      5218      5220      5221
      5219      5218      5220      5222      5219      5218      5220      5223
      5220      5223      5226      5227      5220      5223      5226      5228
      5220      5223      5226      5229      5221      5220      5223      5224
      5221      5220      5223      5225      5221      5220      5223      5226
      5222      5220      5223      5224      5222      5220      5223      5225
      5222      5220      5223      5226      5223      5226      5229      5230
      5223      5226      5229      5231      5223      5226      5229      5232
      5224      5223      5226      5227      5224      5223      5226      5228
      5224      5223      5226      5229      5225      5223      5226      5227
      5225      5223      5226      5228      5225      5223      5226      5229
      5226      5229      5232      5233      5226      5229      5232      5234
      5226      5229      5232      5235      5227      5226      5229      5230
      5227      5226      5229      5231      5227      5226      5229      5232
      5228      5226      5229      5230      5228      5226      5229      5231
      5228      5226      5229      5232      5229      5232      5235      5236
      5229      5232      5235      5237      5229      5232      5235      5238
      5230      5229      5232      5233      5230      5229      5232      5234
      5230      5229      5232      5235      5231      5229      5232      5233
      5231      5229      5232      5234      5231      5229      5232      5235
      5232      5235      5238      5239      5232      5235      5238      5240
      5232      5235      5238      5241      5233      5232      5235      5236
      5233      5232      5235      5237      5233      5232      5235      5238
      5234      5232      5235      5236      5234      5232      5235      5237
      5234      5232      5235      5238      5235      5238      5241      5242
      5235      5238      5241      5243      5235      5238      5241      5244
      5236      5235      5238      5239      5236      5235      5238      5240
      5236      5235      5238      5241      5237      5235      5238      5239
      5237      5235      5238      5240      5237      5235      5238      5241
      5239      5238      5241      5242      5239      5238      5241      5243
      5239      5238      5241      5244      5240      5238      5241      5242
      5240      5238      5241      5243      5240      5238      5241      5244
      5245      5246      5261      5262      5245      5246      5261      5263
      5245      5246      5261      5267      5246      5245      5249      5250
      5246      5245      5249      5251      5246      5245      5249      5252
      5246      5245      5253      5254      5246      5245      5253      5255
      5246      5245      5253      5256      5246      5245      5257      5258
      5246      5245      5257      5259      5246      5245      5257      5260
      5246      5261      5267      5264      5247      5246      5245      5249
      5247      5246      5245      5253      5247      5246      5245      5257
      5247      5246      5261      5262      5247      5246      5261      5263
      5247      5246      5261      5267      5248      5246      5245      5249
      5248      5246      5245      5253      5248      5246      5245      5257
      5248      5246      5261      5262      5248      5246      5261      5263
      5248      5246      5261      5267      5249      5245      5246      5261
      5249      5245      5253      5254      5249      5245      5253      5255
      5249      5245      5253      5256      5249      5245      5257      5258
      5249      5245      5257      5259      5249      5245      5257      5260
      5250      5249      5245      5253      5250      5249      5245      5257
      5251      5249      5245      5253      5251      5249      5245      5257
      5252      5249      5245      5253      5252      5249      5245      5257
      5253      5245      5246      5261      5253      5245      5257      5258
      5253      5245      5257      5259      5253      5245      5257      5260
      5254      5253      5245      5257      5255      5253      5245      5257
      5256      5253      5245      5257      5257      5245      5246      5261
      5261      5267      5264      5265      5261      5267      5264      5266
      5261      5267      5264      5268      5262      5261      5267      5264
      5263      5261      5267      5264      5264      5268      5269      5270
      5264      5268      5269      5271      5264      5268      5269      5272
      5265      5264      5268      5269      5266      5264      5268      5269
      5267      5264      5268      5269      5268      5269      5272      5273
      5268      5269      5272      5274      5268      5269      5272      5280
      5269      5272      5274      5275      5269      5272      5280      5281
      5269      5272      5280      5282      5269      5272      5280      5283
      5270      5269      5272      5273      5270      5269      5272      5274
      5270      5269      5272      5280      5271      5269      5272      5273
      5271      5269      5272      5274      5271      5269      5272      5280
      5272      5274      5275      5276      5272      5274      5275      5277
      5272      5280      5283      5284      5273      5272      5274      5275
      5273      5272      5280      5281      5273      5272      5280      5282
      5273      5272      5280      5283      5274      5272      5280      5281
      5274      5272      5280      5282      5274      5272      5280      5283
      5274      5275      5277      5278      5274      5275      5277      5279
      5274      5275      5277      5289      5275      5274      5272      5280
      5275      5277      5289      5290      5275      5277      5289      5291
      5275      5277      5289      5292      5276      5275      5277      5278
      5276      5275      5277      5279      5276      5275      5277      5289
      5277      5289      5292      5293      5277      5289      5292      5294
      5277      5289      5292      5295      5278      5277      5289      5290
      5278      5277      5289      5291      5278      5277      5289      5292
      5279      5277      5289      5290      5279      5277      5289      5291
      5279      5277      5289      5292      5280      5283      5284      5285
      5280      5283      5284      5286      5281      5280      5283      5284
      5282      5280      5283      5284      5283      5284      5286      5287
      5283      5284      5286      5288      5283      5284      5286      5336
      5284      5286      5336      5337      5284      5286      5336      5338
      5284      5286      5336      5339      5285      5284      5286      5287
      5285      5284      5286      5288      5285      5284      5286      5336
      5286      5336      5339      5340      5286      5336      5339      5341
      5286      5336      5339      5342      5287      5286      5336      5337
      5287      5286      5336      5338      5287      5286      5336      5339
      5288      5286      5336      5337      5288      5286      5336      5338
      5288      5286      5336      5339      5289      5292      5295      5296
      5289      5292      5295      5297      5289      5292      5295      5298
      5290      5289      5292      5293      5290      5289      5292      5294
      5290      5289      5292      5295      5291      5289      5292      5293
      5291      5289      5292      5294      5291      5289      5292      5295
      5292      5295      5298      5299      5292      5295      5298      5300
      5292      5295      5298      5301      5293      5292      5295      5296
      5293      5292      5295      5297      5293      5292      5295      5298
      5294      5292      5295      5296      5294      5292      5295      5297
      5294      5292      5295      5298      5295      5298      5301      5302
      5295      5298      5301      5303      5295      5298      5301      5304
      5296      5295      5298      5299      5296      5295      5298      5300
      5296      5295      5298      5301      5297      5295      5298      5299
      5297      5295      5298      5300      5297      5295      5298      5301
      5298      5301      5304      5305      5298      5301      5304      5306
      5298      5301      5304      5307      5299      5298      5301      5302
      5299      5298      5301      5303      5299      5298      5301      5304
      5300      5298      5301      5302      5300      5298      5301      5303
      5300      5298      5301      5304      5301      5304      5307      5308
      5301      5304      5307      5309      5302      5301      5304      5305
      5302      5301      5304      5306      5302      5301      5304      5307
      5303      5301      5304      5305      5303      5301      5304      5306
      5303      5301      5304      5307      5304      5307      5309      5310
      5304      5307      5309      5311      5305      5304      5307      5308
      5305      5304      5307      5309      5306      5304      5307      5308
      5306      5304      5307      5309      5307      5309      5311      5312
      5307      5309      5311      5313      5307      5309      5311      5314
      5308      5307      5309      5310      5308      5307      5309      5311
      5309      5311      5314      5315      5309      5311      5314      5316
      5309      5311      5314      5317      5310      5309      5311      5312
      5310      5309      5311      5313      5310      5309      5311      5314
      5311      5314      5317      5318      5311      5314      5317      5319
      5311      5314      5317      5320      5312      5311      5314      5315
      5312      5311      5314      5316      5312      5311      5314      5317
      5313      5311      5314      5315      5313      5311      5314      5316
      5313      5311      5314      5317      5314      5317      5320      5321
      5314      5317      5320      5322      5314      5317      5320      5323
      5315      5314      5317      5318      5315      5314      5317      5319
      5315      5314      5317      5320      5316      5314      5317      5318
      5316      5314      5317      5319      5316      5314      5317      5320
      5317      5320      5323      5324      5317      5320      5323      5325
      5317      5320      5323      5326      5318      5317      5320      5321
      5318      5317      5320      5322      5318      5317      5320      5323
      5319      5317      5320      5321      5319      5317      5320      5322
      5319      5317      5320      5323      5320      5323      5326      5327
      5320      5323      5326      5328      5320      5323      5326      5329
      5321      5320      5323      5324      5321      5320      5323      5325
      5321      5320      5323      5326      5322      5320      5323      5324
      5322      5320      5323      5325      5322      5320      5323      5326
      5323      5326      5329      5330      5323      5326      5329      5331
      5323      5326      5329      5332      5324      5323      5326      5327
      5324      5323      5326      5328      5324      5323      5326      5329
      5325      5323      5326      5327      5325      5323      5326      5328
      5325      5323      5326      5329      5326      5329      5332      5333
      5326      5329      5332      5334      5326      5329      5332      5335
      5327      5326      5329      5330      5327      5326      5329      5331
      5327      5326      5329      5332      5328      5326      5329      5330
      5328      5326      5329      5331      5328      5326      5329      5332
      5330      5329      5332      5333      5330      5329      5332      5334
      5330      5329      5332      5335      5331      5329      5332      5333
      5331      5329      5332      5334      5331      5329      5332      5335
      5336      5339      5342      5343      5336      5339      5342      5344
      5336      5339      5342      5345      5337      5336      5339      5340
      5337      5336      5339      5341      5337      5336      5339      5342
      5338      5336      5339      5340      5338      5336      5339      5341
      5338      5336      5339      5342      5339      5342      5345      5346
      5339      5342      5345      5347      5339      5342      5345      5348
      5340      5339      5342      5343      5340      5339      5342      5344
      5340      5339      5342      5345      5341      5339      5342      5343
      5341      5339      5342      5344      5341      5339      5342      5345
      5342      5345      5348      5349      5342      5345      5348      5350
      5342      5345      5348      5351      5343      5342      5345      5346
      5343      5342      5345      5347      5343      5342      5345      5348
      5344      5342      5345      5346      5344      5342      5345      5347
      5344      5342      5345      5348      5345      5348      5351      5352
      5345      5348      5351      5353      5345      5348      5351      5354
      5346      5345      5348      5349      5346      5345      5348      5350
      5346      5345      5348      5351      5347      5345      5348      5349
      5347      5345      5348      5350      5347      5345      5348      5351
      5348      5351      5354      5355      5348      5351      5354      5356
      5349      5348      5351      5352      5349      5348      5351      5353
      5349      5348      5351      5354      5350      5348      5351      5352
      5350      5348      5351      5353      5350      5348      5351      5354
      5351      5354      5356      5357      5351      5354      5356      5358
      5352      5351      5354      5355      5352      5351      5354      5356
      5353      5351      5354      5355      5353      5351      5354      5356
      5354      5356      5358      5359      5354      5356      5358      5360
      5354      5356      5358      5361      5355      5354      5356      5357
      5355      5354      5356      5358      5356      5358      5361      5362
      5356      5358      5361      5363      5356      5358      5361      5364
      5357      5356      5358      5359      5357      5356      5358      5360
      5357      5356      5358      5361      5358      5361      5364      5365
      5358      5361      5364      5366      5358      5361      5364      5367
      5359      5358      5361      5362      5359      5358      5361      5363
      5359      5358      5361      5364      5360      5358      5361      5362
      5360      5358      5361      5363      5360      5358      5361      5364
      5361      5364      5367      5368      5361      5364      5367      5369
      5361      5364      5367      5370      5362      5361      5364      5365
      5362      5361      5364      5366      5362      5361      5364      5367
      5363      5361      5364      5365      5363      5361      5364      5366
      5363      5361      5364      5367      5364      5367      5370      5371
      5364      5367      5370      5372      5364      5367      5370      5373
      5365      5364      5367      5368      5365      5364      5367      5369
      5365      5364      5367      5370      5366      5364      5367      5368
      5366      5364      5367      5369      5366      5364      5367      5370
      5367      5370      5373      5374      5367      5370      5373      5375
      5367      5370      5373      5376      5368      5367      5370      5371
      5368      5367      5370      5372      5368      5367      5370      5373
      5369      5367      5370      5371      5369      5367      5370      5372
      5369      5367      5370      5373      5370      5373      5376      5377
      5370      5373      5376      5378      5370      5373      5376      5379
      5371      5370      5373      5374      5371      5370      5373      5375
      5371      5370      5373      5376      5372      5370      5373      5374
      5372      5370      5373      5375      5372      5370      5373      5376
      5373      5376      5379      5380      5373      5376      5379      5381
      5373      5376      5379      5382      5374      5373      5376      5377
      5374      5373      5376      5378      5374      5373      5376      5379
      5375      5373      5376      5377      5375      5373      5376      5378
      5375      5373      5376      5379      5377      5376      5379      5380
      5377      5376      5379      5381      5377      5376      5379      5382
      5378      5376      5379      5380      5378      5376      5379      5381
      5378      5376      5379      5382      5383      5384      5399      5400
      5383      5384      5399      5401      5383      5384      5399      5405
      5384      5383      5387      5388      5384      5383      5387      5389
      5384      5383      5387      5390      5384      5383      5391      5392
      5384      5383      5391      5393      5384      5383      5391      5394
      5384      5383      5395      5396      5384      5383      5395      5397
      5384      5383      5395      5398      5384      5399      5405      5402
      5385      5384      5383      5387      5385      5384      5383      5391
      5385      5384      5383      5395      5385      5384      5399      5400
      5385      5384      5399      5401      5385      5384      5399      5405
      5386      5384      5383      5387      5386      5384      5383      5391
      5386      5384      5383      5395      5386      5384      5399      5400
      5386      5384      5399      5401      5386      5384      5399      5405
      5387      5383      5384      5399      5387      5383      5391      5392
      5387      5383      5391      5393      5387      5383      5391      5394
      5387      5383      5395      5396      5387      5383      5395      5397
      5387      5383      5395      5398      5388      5387      5383      5391
      5388      5387      5383      5395      5389      5387      5383      5391
      5389      5387      5383      5395      5390      5387      5383      5391
      5390      5387      5383      5395      5391      5383      5384      5399
      5391      5383      5395      5396      5391      5383      5395      5397
      5391      5383      5395      5398      5392      5391      5383      5395
      5393      5391      5383      5395      5394      5391      5383      5395
      5395      5383      5384      5399      5399      5405      5402      5403
      5399      5405      5402      5404      5399      5405      5402      5406
      5400      5399      5405      5402      5401      5399      5405      5402
      5402      5406      5407      5408      5402      5406      5407      5409
      5402      5406      5407      5410      5403      5402      5406      5407
      5404      5402      5406      5407      5405      5402      5406      5407
      5406      5407      5410      5411      5406      5407      5410      5412
      5406      5407      5410      5418      5407      5410      5412      5413
      5407      5410      5418      5419      5407      5410      5418      5420
      5407      5410      5418      5421      5408      5407      5410      5411
      5408      5407      5410      5412      5408      5407      5410      5418
      5409      5407      5410      5411      5409      5407      5410      5412
      5409      5407      5410      5418      5410      5412      5413      5414
      5410      5412      5413      5415      5410      5418      5421      5422
      5411      5410      5412      5413      5411      5410      5418      5419
      5411      5410      5418      5420      5411      5410      5418      5421
      5412      5410      5418      5419      5412      5410      5418      5420
      5412      5410      5418      5421      5412      5413      5415      5416
      5412      5413      5415      5417      5412      5413      5415      5427
      5413      5412      5410      5418      5413      5415      5427      5428
      5413      5415      5427      5429      5413      5415      5427      5430
      5414      5413      5415      5416      5414      5413      5415      5417
      5414      5413      5415      5427      5415      5427      5430      5431
      5415      5427      5430      5432      5415      5427      5430      5433
      5416      5415      5427      5428      5416      5415      5427      5429
      5416      5415      5427      5430      5417      5415      5427      5428
      5417      5415      5427      5429      5417      5415      5427      5430
      5418      5421      5422      5423      5418      5421      5422      5424
      5419      5418      5421      5422      5420      5418      5421      5422
      5421      5422      5424      5425      5421      5422      5424      5426
      5421      5422      5424      5474      5422      5424      5474      5475
      5422      5424      5474      5476      5422      5424      5474      5477
      5423      5422      5424      5425      5423      5422      5424      5426
      5423      5422      5424      5474      5424      5474      5477      5478
      5424      5474      5477      5479      5424      5474      5477      5480
      5425      5424      5474      5475      5425      5424      5474      5476
      5425      5424      5474      5477      5426      5424      5474      5475
      5426      5424      5474      5476      5426      5424      5474      5477
      5427      5430      5433      5434      5427      5430      5433      5435
      5427      5430      5433      5436      5428      5427      5430      5431
      5428      5427      5430      5432      5428      5427      5430      5433
      5429      5427      5430      5431      5429      5427      5430      5432
      5429      5427      5430      5433      5430      5433      5436      5437
      5430      5433      5436      5438      5430      5433      5436      5439
      5431      5430      5433      5434      5431      5430      5433      5435
      5431      5430      5433      5436      5432      5430      5433      5434
      5432      5430      5433      5435      5432      5430      5433      5436
      5433      5436      5439      5440      5433      5436      5439      5441
      5433      5436      5439      5442      5434      5433      5436      5437
      5434      5433      5436      5438      5434      5433      5436      5439
      5435      5433      5436      5437      5435      5433      5436      5438
      5435      5433      5436      5439      5436      5439      5442      5443
      5436      5439      5442      5444      5436      5439      5442      5445
      5437      5436      5439      5440      5437      5436      5439      5441
      5437      5436      5439      5442      5438      5436      5439      5440
      5438      5436      5439      5441      5438      5436      5439      5442
      5439      5442      5445      5446      5439      5442      5445      5447
      5440      5439      5442      5443      5440      5439      5442      5444
      5440      5439      5442      5445      5441      5439      5442      5443
      5441      5439      5442      5444      5441      5439      5442      5445
      5442      5445      5447      5448      5442      5445      5447      5449
      5443      5442      5445      5446      5443      5442      5445      5447
      5444      5442      5445      5446      5444      5442      5445      5447
      5445      5447      5449      5450      5445      5447      5449      5451
      5445      5447      5449      5452      5446      5445      5447      5448
      5446      5445      5447      5449      5447      5449      5452      5453
      5447      5449      5452      5454      5447      5449      5452      5455
      5448      5447      5449      5450      5448      5447      5449      5451
      5448      5447      5449      5452      5449      5452      5455      5456
      5449      5452      5455      5457      5449      5452      5455      5458
      5450      5449      5452      5453      5450      5449      5452      5454
      5450      5449      5452      5455      5451      5449      5452      5453
      5451      5449      5452      5454      5451      5449      5452      5455
      5452      5455      5458      5459      5452      5455      5458      5460
      5452      5455      5458      5461      5453      5452      5455      5456
      5453      5452      5455      5457      5453      5452      5455      5458
      5454      5452      5455      5456      5454      5452      5455      5457
      5454      5452      5455      5458      5455      5458      5461      5462
      5455      5458      5461      5463      5455      5458      5461      5464
      5456      5455      5458      5459      5456      5455      5458      5460
      5456      5455      5458      5461      5457      5455      5458      5459
      5457      5455      5458      5460      5457      5455      5458      5461
      5458      5461      5464      5465      5458      5461      5464      5466
      5458      5461      5464      5467      5459      5458      5461      5462
      5459      5458      5461      5463      5459      5458      5461      5464
      5460      5458      5461      5462      5460      5458      5461      5463
      5460      5458      5461      5464      5461      5464      5467      5468
      5461      5464      5467      5469      5461      5464      5467      5470
      5462      5461      5464      5465      5462      5461      5464      5466
      5462      5461      5464      5467      5463      5461      5464      5465
      5463      5461      5464      5466      5463      5461      5464      5467
      5464      5467      5470      5471      5464      5467      5470      5472
      5464      5467      5470      5473      5465      5464      5467      5468
      5465      5464      5467      5469      5465      5464      5467      5470
      5466      5464      5467      5468      5466      5464      5467      5469
      5466      5464      5467      5470      5468      5467      5470      5471
      5468      5467      5470      5472      5468      5467      5470      5473
      5469      5467      5470      5471      5469      5467      5470      5472
      5469      5467      5470      5473      5474      5477      5480      5481
      5474      5477      5480      5482      5474      5477      5480      5483
      5475      5474      5477      5478      5475      5474      5477      5479
      5475      5474      5477      5480      5476      5474      5477      5478
      5476      5474      5477      5479      5476      5474      5477      5480
      5477      5480      5483      5484      5477      5480      5483      5485
      5477      5480      5483      5486      5478      5477      5480      5481
      5478      5477      5480      5482      5478      5477      5480      5483
      5479      5477      5480      5481      5479      5477      5480      5482
      5479      5477      5480      5483      5480      5483      5486      5487
      5480      5483      5486      5488      5480      5483      5486      5489
      5481      5480      5483      5484      5481      5480      5483      5485
      5481      5480      5483      5486      5482      5480      5483      5484
      5482      5480      5483      5485      5482      5480      5483      5486
      5483      5486      5489      5490      5483      5486      5489      5491
      5483      5486      5489      5492      5484      5483      5486      5487
      5484      5483      5486      5488      5484      5483      5486      5489
      5485      5483      5486      5487      5485      5483      5486      5488
      5485      5483      5486      5489      5486      5489      5492      5493
      5486      5489      5492      5494      5487      5486      5489      5490
      5487      5486      5489      5491      5487      5486      5489      5492
      5488      5486      5489      5490      5488      5486      5489      5491
      5488      5486      5489      5492      5489      5492      5494      5495
      5489      5492      5494      5496      5490      5489      5492      5493
      5490      5489      5492      5494      5491      5489      5492      5493
      5491      5489      5492      5494      5492      5494      5496      5497
      5492      5494      5496      5498      5492      5494      5496      5499
      5493      5492      5494      5495      5493      5492      5494      5496
      5494      5496      5499      5500      5494      5496      5499      5501
      5494      5496      5499      5502      5495      5494      5496      5497
      5495      5494      5496      5498      5495      5494      5496      5499
      5496      5499      5502      5503      5496      5499      5502      5504
      5496      5499      5502      5505      5497      5496      5499      5500
      5497      5496      5499      5501      5497      5496      5499      5502
      5498      5496      5499      5500      5498      5496      5499      5501
      5498      5496      5499      5502      5499      5502      5505      5506
      5499      5502      5505      5507      5499      5502      5505      5508
      5500      5499      5502      5503      5500      5499      5502      5504
      5500      5499      5502      5505      5501      5499      5502      5503
      5501      5499      5502      5504      5501      5499      5502      5505
      5502      5505      5508      5509      5502      5505      5508      5510
      5502      5505      5508      5511      5503      5502      5505      5506
      5503      5502      5505      5507      5503      5502      5505      5508
      5504      5502      5505      5506      5504      5502      5505      5507
      5504      5502      5505      5508      5505      5508      5511      5512
      5505      5508      5511      5513      5505      5508      5511      5514
      5506      5505      5508      5509      5506      5505      5508      5510
      5506      5505      5508      5511      5507      5505      5508      5509
      5507      5505      5508      5510      5507      5505      5508      5511
      5508      5511      5514      5515      5508      5511      5514      5516
      5508      5511      5514      5517      5509      5508      5511      5512
      5509      5508      5511      5513      5509      5508      5511      5514
      5510      5508      5511      5512      5510      5508      5511      5513
      5510      5508      5511      5514      5511      5514      5517      5518
      5511      5514      5517      5519      5511      5514      5517      5520
      5512      5511      5514      5515      5512      5511      5514      5516
      5512      5511      5514      5517      5513      5511      5514      5515
      5513      5511      5514      5516      5513      5511      5514      5517
      5515      5514      5517      5518      5515      5514      5517      5519
      5515      5514      5517      5520      5516      5514      5517      5518
      5516      5514      5517      5519      5516      5514      5517      5520
      5521      5522      5537      5538      5521      5522      5537      5539
      5521      5522      5537      5543      5522      5521      5525      5526
      5522      5521      5525      5527      5522      5521      5525      5528
      5522      5521      5529      5530      5522      5521      5529      5531
      5522      5521      5529      5532      5522      5521      5533      5534
      5522      5521      5533      5535      5522      5521      5533      5536
      5522      5537      5543      5540      5523      5522      5521      5525
      5523      5522      5521      5529      5523      5522      5521      5533
      5523      5522      5537      5538      5523      5522      5537      5539
      5523      5522      5537      5543      5524      5522      5521      5525
      5524      5522      5521      5529      5524      5522      5521      5533
      5524      5522      5537      5538      5524      5522      5537      5539
      5524      5522      5537      5543      5525      5521      5522      5537
      5525      5521      5529      5530      5525      5521      5529      5531
      5525      5521      5529      5532      5525      5521      5533      5534
      5525      5521      5533      5535      5525      5521      5533      5536
      5526      5525      5521      5529      5526      5525      5521      5533
      5527      5525      5521      5529      5527      5525      5521      5533
      5528      5525      5521      5529      5528      5525      5521      5533
      5529      5521      5522      5537      5529      5521      5533      5534
      5529      5521      5533      5535      5529      5521      5533      5536
      5530      5529      5521      5533      5531      5529      5521      5533
      5532      5529      5521      5533      5533      5521      5522      5537
      5537      5543      5540      5541      5537      5543      5540      5542
      5537      5543      5540      5544      5538      5537      5543      5540
      5539      5537      5543      5540      5540      5544      5545      5546
      5540      5544      5545      5547      5540      5544      5545      5548
      5541      5540      5544      5545      5542      5540      5544      5545
      5543      5540      5544      5545      5544      5545      5548      5549
      5544      5545      5548      5550      5544      5545      5548      5556
      5545      5548      5550      5551      5545      5548      5556      5557
      5545      5548      5556      5558      5545      5548      5556      5559
      5546      5545      5548      5549      5546      5545      5548      5550
      5546      5545      5548      5556      5547      5545      5548      5549
      5547      5545      5548      5550      5547      5545      5548      5556
      5548      5550      5551      5552      5548      5550      5551      5553
      5548      5556      5559      5560      5549      5548      5550      5551
      5549      5548      5556      5557      5549      5548      5556      5558
      5549      5548      5556      5559      5550      5548      5556      5557
      5550      5548      5556      5558      5550      5548      5556      5559
      5550      5551      5553      5554      5550      5551      5553      5555
      5550      5551      5553      5565      5551      5550      5548      5556
      5551      5553      5565      5566      5551      5553      5565      5567
      5551      5553      5565      5568      5552      5551      5553      5554
      5552      5551      5553      5555      5552      5551      5553      5565
      5553      5565      5568      5569      5553      5565      5568      5570
      5553      5565      5568      5571      5554      5553      5565      5566
      5554      5553      5565      5567      5554      5553      5565      5568
      5555      5553      5565      5566      5555      5553      5565      5567
      5555      5553      5565      5568      5556      5559      5560      5561
      5556      5559      5560      5562      5557      5556      5559      5560
      5558      5556      5559      5560      5559      5560      5562      5563
      5559      5560      5562      5564      5559      5560      5562      5612
      5560      5562      5612      5613      5560      5562      5612      5614
      5560      5562      5612      5615      5561      5560      5562      5563
      5561      5560      5562      5564      5561      5560      5562      5612
      5562      5612      5615      5616      5562      5612      5615      5617
      5562      5612      5615      5618      5563      5562      5612      5613
      5563      5562      5612      5614      5563      5562      5612      5615
      5564      5562      5612      5613      5564      5562      5612      5614
      5564      5562      5612      5615      5565      5568      5571      5572
      5565      5568      5571      5573      5565      5568      5571      5574
      5566      5565      5568      5569      5566      5565      5568      5570
      5566      5565      5568      5571      5567      5565      5568      5569
      5567      5565      5568      5570      5567      5565      5568      5571
      5568      5571      5574      5575      5568      5571      5574      5576
      5568      5571      5574      5577      5569      5568      5571      5572
      5569      5568      5571      5573      5569      5568      5571      5574
      5570      5568      5571      5572      5570      5568      5571      5573
      5570      5568      5571      5574      5571      5574      5577      5578
      5571      5574      5577      5579      5571      5574      5577      5580
      5572      5571      5574      5575      5572      5571      5574      5576
      5572      5571      5574      5577      5573      5571      5574      5575
      5573      5571      5574      5576      5573      5571      5574      5577
      5574      5577      5580      5581      5574      5577      5580      5582
      5574      5577      5580      5583      5575      5574      5577      5578
      5575      5574      5577      5579      5575      5574      5577      5580
      5576      5574      5577      5578      5576      5574      5577      5579
      5576      5574      5577      5580      5577      5580      5583      5584
      5577      5580      5583      5585      5578      5577      5580      5581
      5578      5577      5580      5582      5578      5577      5580      5583
      5579      5577      5580      5581      5579      5577      5580      5582
      5579      5577      5580      5583      5580      5583      5585      5586
      5580      5583      5585      5587      5581      5580      5583      5584
      5581      5580      5583      5585      5582      5580      5583      5584
      5582      5580      5583      5585      5583      5585      5587      5588
      5583      5585      5587      5589      5583      5585      5587      5590
      5584      5583      5585      5586      5584      5583      5585      5587
      5585      5587      5590      5591      5585      5587      5590      5592
      5585      5587      5590      5593      5586      5585      5587      5588
      5586      5585      5587      5589      5586      5585      5587      5590
      5587      5590      5593      5594      5587      5590      5593      5595
      5587      5590      5593      5596      5588      5587      5590      5591
      5588      5587      5590      5592      5588      5587      5590      5593
      5589      5587      5590      5591      5589      5587      5590      5592
      5589      5587      5590      5593      5590      5593      5596      5597
      5590      5593      5596      5598      5590      5593      5596      5599
      5591      5590      5593      5594      5591      5590      5593      5595
      5591      5590      5593      5596      5592      5590      5593      5594
      5592      5590      5593      5595      5592      5590      5593      5596
      5593      5596      5599      5600      5593      5596      5599      5601
      5593      5596      5599      5602      5594      5593      5596      5597
      5594      5593      5596      5598      5594      5593      5596      5599
      5595      5593      5596      5597      5595      5593      5596      5598
      5595      5593      5596      5599      5596      5599      5602      5603
      5596      5599      5602      5604      5596      5599      5602      5605
      5597      5596      5599      5600      5597      5596      5599      5601
      5597      5596      5599      5602      5598      5596      5599      5600
      5598      5596      5599      5601      5598      5596      5599      5602
      5599      5602      5605      5606      5599      5602      5605      5607
      5599      5602      5605      5608      5600      5599      5602      5603
      5600      5599      5602      5604      5600      5599      5602      5605
      5601      5599      5602      5603      5601      5599      5602      5604
      5601      5599      5602      5605      5602      5605      5608      5609
      5602      5605      5608      5610      5602      5605      5608      5611
      5603      5602      5605      5606      5603      5602      5605      5607
      5603      5602      5605      5608      5604      5602      5605      5606
      5604      5602      5605      5607      5604      5602      5605      5608
      5606      5605      5608      5609      5606      5605      5608      5610
      5606      5605      5608      5611      5607      5605      5608      5609
      5607      5605      5608      5610      5607      5605      5608      5611
      5612      5615      5618      5619      5612      5615      5618      5620
      5612      5615      5618      5621      5613      5612      5615      5616
      5613      5612      5615      5617      5613      5612      5615      5618
      5614      5612      5615      5616      5614      5612      5615      5617
      5614      5612      5615      5618      5615      5618      5621      5622
      5615      5618      5621      5623      5615      5618      5621      5624
      5616      5615      5618      5619      5616      5615      5618      5620
      5616      5615      5618      5621      5617      5615      5618      5619
      5617      5615      5618      5620      5617      5615      5618      5621
      5618      5621      5624      5625      5618      5621      5624      5626
      5618      5621      5624      5627      5619      5618      5621      5622
      5619      5618      5621      5623      5619      5618      5621      5624
      5620      5618      5621      5622      5620      5618      5621      5623
      5620      5618      5621      5624      5621      5624      5627      5628
      5621      5624      5627      5629      5621      5624      5627      5630
      5622      5621      5624      5625      5622      5621      5624      5626
      5622      5621      5624      5627      5623      5621      5624      5625
      5623      5621      5624      5626      5623      5621      5624      5627
      5624      5627      5630      5631      5624      5627      5630      5632
      5625      5624      5627      5628      5625      5624      5627      5629
      5625      5624      5627      5630      5626      5624      5627      5628
      5626      5624      5627      5629      5626      5624      5627      5630
      5627      5630      5632      5633      5627      5630      5632      5634
      5628      5627      5630      5631      5628      5627      5630      5632
      5629      5627      5630      5631      5629      5627      5630      5632
      5630      5632      5634      5635      5630      5632      5634      5636
      5630      5632      5634      5637      5631      5630      5632      5633
      5631      5630      5632      5634      5632      5634      5637      5638
      5632      5634      5637      5639      5632      5634      5637      5640
      5633      5632      5634      5635      5633      5632      5634      5636
      5633      5632      5634      5637      5634      5637      5640      5641
      5634      5637      5640      5642      5634      5637      5640      5643
      5635      5634      5637      5638      5635      5634      5637      5639
      5635      5634      5637      5640      5636      5634      5637      5638
      5636      5634      5637      5639      5636      5634      5637      5640
      5637      5640      5643      5644      5637      5640      5643      5645
      5637      5640      5643      5646      5638      5637      5640      5641
      5638      5637      5640      5642      5638      5637      5640      5643
      5639      5637      5640      5641      5639      5637      5640      5642
      5639      5637      5640      5643      5640      5643      5646      5647
      5640      5643      5646      5648      5640      5643      5646      5649
      5641      5640      5643      5644      5641      5640      5643      5645
      5641      5640      5643      5646      5642      5640      5643      5644
      5642      5640      5643      5645      5642      5640      5643      5646
      5643      5646      5649      5650      5643      5646      5649      5651
      5643      5646      5649      5652      5644      5643      5646      5647
      5644      5643      5646      5648      5644      5643      5646      5649
      5645      5643      5646      5647      5645      5643      5646      5648
      5645      5643      5646      5649      5646      5649      5652      5653
      5646      5649      5652      5654      5646      5649      5652      5655
      5647      5646      5649      5650      5647      5646      5649      5651
      5647      5646      5649      5652      5648      5646      5649      5650
      5648      5646      5649      5651      5648      5646      5649      5652
      5649      5652      5655      5656      5649      5652      5655      5657
      5649      5652      5655      5658      5650      5649      5652      5653
      5650      5649      5652      5654      5650      5649      5652      5655
      5651      5649      5652      5653      5651      5649      5652      5654
      5651      5649      5652      5655      5653      5652      5655      5656
      5653      5652      5655      5657      5653      5652      5655      5658
      5654      5652      5655      5656      5654      5652      5655      5657
      5654      5652      5655      5658      5659      5660      5675      5676
      5659      5660      5675      5677      5659      5660      5675      5681
      5660      5659      5663      5664      5660      5659      5663      5665
      5660      5659      5663      5666      5660      5659      5667      5668
      5660      5659      5667      5669      5660      5659      5667      5670
      5660      5659      5671      5672      5660      5659      5671      5673
      5660      5659      5671      5674      5660      5675      5681      5678
      5661      5660      5659      5663      5661      5660      5659      5667
      5661      5660      5659      5671      5661      5660      5675      5676
      5661      5660      5675      5677      5661      5660      5675      5681
      5662      5660      5659      5663      5662      5660      5659      5667
      5662      5660      5659      5671      5662      5660      5675      5676
      5662      5660      5675      5677      5662      5660      5675      5681
      5663      5659      5660      5675      5663      5659      5667      5668
      5663      5659      5667      5669      5663      5659      5667      5670
      5663      5659      5671      5672      5663      5659      5671      5673
      5663      5659      5671      5674      5664      5663      5659      5667
      5664      5663      5659      5671      5665      5663      5659      5667
      5665      5663      5659      5671      5666      5663      5659      5667
      5666      5663      5659      5671      5667      5659      5660      5675
      5667      5659      5671      5672      5667      5659      5671      5673
      5667      5659      5671      5674      5668      5667      5659      5671
      5669      5667      5659      5671      5670      5667      5659      5671
      5671      5659      5660      5675      5675      5681      5678      5679
      5675      5681      5678      5680      5675      5681      5678      5682
      5676      5675      5681      5678      5677      5675      5681      5678
      5678      5682      5683      5684      5678      5682      5683      5685
      5678      5682      5683      5686      5679      5678      5682      5683
      5680      5678      5682      5683      5681      5678      5682      5683
      5682      5683      5686      5687      5682      5683      5686      5688
      5682      5683      5686      5694      5683      5686      5688      5689
      5683      5686      5694      5695      5683      5686      5694      5696
      5683      5686      5694      5697      5684      5683      5686      5687
      5684      5683      5686      5688      5684      5683      5686      5694
      5685      5683      5686      5687      5685      5683      5686      5688
      5685      5683      5686      5694      5686      5688      5689      5690
      5686      5688      5689      5691      5686      5694      5697      5698
      5687      5686      5688      5689      5687      5686      5694      5695
      5687      5686      5694      5696      5687      5686      5694      5697
      5688      5686      5694      5695      5688      5686      5694      5696
      5688      5686      5694      5697      5688      5689      5691      5692
      5688      5689      5691      5693      5688      5689      5691      5703
      5689      5688      5686      5694      5689      5691      5703      5704
      5689      5691      5703      5705      5689      5691      5703      5706
      5690      5689      5691      5692      5690      5689      5691      5693
      5690      5689      5691      5703      5691      5703      5706      5707
      5691      5703      5706      5708      5691      5703      5706      5709
      5692      5691      5703      5704      5692      5691      5703      5705
      5692      5691      5703      5706      5693      5691      5703      5704
      5693      5691      5703      5705      5693      5691      5703      5706
      5694      5697      5698      5699      5694      5697      5698      5700
      5695      5694      5697      5698      5696      5694      5697      5698
      5697      5698      5700      5701      5697      5698      5700      5702
      5697      5698      5700      5750      5698      5700      5750      5751
      5698      5700      5750      5752      5698      5700      5750      5753
      5699      5698      5700      5701      5699      5698      5700      5702
      5699      5698      5700      5750      5700      5750      5753      5754
      5700      5750      5753      5755      5700      5750      5753      5756
      5701      5700      5750      5751      5701      5700      5750      5752
      5701      5700      5750      5753      5702      5700      5750      5751
      5702      5700      5750      5752      5702      5700      5750      5753
      5703      5706      5709      5710      5703      5706      5709      5711
      5703      5706      5709      5712      5704      5703      5706      5707
      5704      5703      5706      5708      5704      5703      5706      5709
      5705      5703      5706      5707      5705      5703      5706      5708
      5705      5703      5706      5709      5706      5709      5712      5713
      5706      5709      5712      5714      5706      5709      5712      5715
      5707      5706      5709      5710      5707      5706      5709      5711
      5707      5706      5709      5712      5708      5706      5709      5710
      5708      5706      5709      5711      5708      5706      5709      5712
      5709      5712      5715      5716      5709      5712      5715      5717
      5709      5712      5715      5718      5710      5709      5712      5713
      5710      5709      5712      5714      5710      5709      5712      5715
      5711      5709      5712      5713      5711      5709      5712      5714
      5711      5709      5712      5715      5712      5715      5718      5719
      5712      5715      5718      5720      5712      5715      5718      5721
      5713      5712      5715      5716      5713      5712      5715      5717
      5713      5712      5715      5718      5714      5712      5715      5716
      5714      5712      5715      5717      5714      5712      5715      5718
      5715      5718      5721      5722      5715      5718      5721      5723
      5716      5715      5718      5719      5716      5715      5718      5720
      5716      5715      5718      5721      5717      5715      5718      5719
      5717      5715      5718      5720      5717      5715      5718      5721
      5718      5721      5723      5724      5718      5721      5723      5725
      5719      5718      5721      5722      5719      5718      5721      5723
      5720      5718      5721      5722      5720      5718      5721      5723
      5721      5723      5725      5726      5721      5723      5725      5727
      5721      5723      5725      5728      5722      5721      5723      5724
      5722      5721      5723      5725      5723      5725      5728      5729
      5723      5725      5728      5730      5723      5725      5728      5731
      5724      5723      5725      5726      5724      5723      5725      5727
      5724      5723      5725      5728      5725      5728      5731      5732
      5725      5728      5731      5733      5725      5728      5731      5734
      5726      5725      5728      5729      5726      5725      5728      5730
      5726      5725      5728      5731      5727      5725      5728      5729
      5727      5725      5728      5730      5727      5725      5728      5731
      5728      5731      5734      5735      5728      5731      5734      5736
      5728      5731      5734      5737      5729      5728      5731      5732
      5729      5728      5731      5733      5729      5728      5731      5734
      5730      5728      5731      5732      5730      5728      5731      5733
      5730      5728      5731      5734      5731      5734      5737      5738
      5731      5734      5737      5739      5731      5734      5737      5740
      5732      5731      5734      5735      5732      5731      5734      5736
      5732      5731      5734      5737      5733      5731      5734      5735
      5733      5731      5734      5736      5733      5731      5734      5737
      5734      5737      5740      5741      5734      5737      5740      5742
      5734      5737      5740      5743      5735      5734      5737      5738
      5735      5734      5737      5739      5735      5734      5737      5740
      5736      5734      5737      5738      5736      5734      5737      5739
      5736      5734      5737      5740      5737      5740      5743      5744
      5737      5740      5743      5745      5737      5740      5743      5746
      5738      5737      5740      5741      5738      5737      5740      5742
      5738      5737      5740      5743      5739      5737      5740      5741
      5739      5737      5740      5742      5739      5737      5740      5743
      5740      5743      5746      5747      5740      5743      5746      5748
      5740      5743      5746      5749      5741      5740      5743      5744
      5741      5740      5743      5745      5741      5740      5743      5746
      5742      5740      5743      5744      5742      5740      5743      5745
      5742      5740      5743      5746      5744      5743      5746      5747
      5744      5743      5746      5748      5744      5743      5746      5749
      5745      5743      5746      5747      5745      5743      5746      5748
      5745      5743      5746      5749      5750      5753      5756      5757
      5750      5753      5756      5758      5750      5753      5756      5759
      5751      5750      5753      5754      5751      5750      5753      5755
      5751      5750      5753      5756      5752      5750      5753      5754
      5752      5750      5753      5755      5752      5750      5753      5756
      5753      5756      5759      5760      5753      5756      5759      5761
      5753      5756      5759      5762      5754      5753      5756      5757
      5754      5753      5756      5758      5754      5753      5756      5759
      5755      5753      5756      5757      5755      5753      5756      5758
      5755      5753      5756      5759      5756      5759      5762      5763
      5756      5759      5762      5764      5756      5759      5762      5765
      5757      5756      5759      5760      5757      5756      5759      5761
      5757      5756      5759      5762      5758      5756      5759      5760
      5758      5756      5759      5761      5758      5756      5759      5762
      5759      5762      5765      5766      5759      5762      5765      5767
      5759      5762      5765      5768      5760      5759      5762      5763
      5760      5759      5762      5764      5760      5759      5762      5765
      5761      5759      5762      5763      5761      5759      5762      5764
      5761      5759      5762      5765      5762      5765      5768      5769
      5762      5765      5768      5770      5763      5762      5765      5766
      5763      5762      5765      5767      5763      5762      5765      5768
      5764      5762      5765      5766      5764      5762      5765      5767
      5764      5762      5765      5768      5765      5768      5770      5771
      5765      5768      5770      5772      5766      5765      5768      5769
      5766      5765      5768      5770      5767      5765      5768      5769
      5767      5765      5768      5770      5768      5770      5772      5773
      5768      5770      5772      5774      5768      5770      5772      5775
      5769      5768      5770      5771      5769      5768      5770      5772
      5770      5772      5775      5776      5770      5772      5775      5777
      5770      5772      5775      5778      5771      5770      5772      5773
      5771      5770      5772      5774      5771      5770      5772      5775
      5772      5775      5778      5779      5772      5775      5778      5780
      5772      5775      5778      5781      5773      5772      5775      5776
      5773      5772      5775      5777      5773      5772      5775      5778
      5774      5772      5775      5776      5774      5772      5775      5777
      5774      5772      5775      5778      5775      5778      5781      5782
      5775      5778      5781      5783      5775      5778      5781      5784
      5776      5775      5778      5779      5776      5775      5778      5780
      5776      5775      5778      5781      5777      5775      5778      5779
      5777      5775      5778      5780      5777      5775      5778      5781
      5778      5781      5784      5785      5778      5781      5784      5786
      5778      5781      5784      5787      5779      5778      5781      5782
      5779      5778      5781      5783      5779      5778      5781      5784
      5780      5778      5781      5782      5780      5778      5781      5783
      5780      5778      5781      5784      5781      5784      5787      5788
      5781      5784      5787      5789      5781      5784      5787      5790
      5782      5781      5784      5785      5782      5781      5784      5786
      5782      5781      5784      5787      5783      5781      5784      5785
      5783      5781      5784      5786      5783      5781      5784      5787
      5784      5787      5790      5791      5784      5787      5790      5792
      5784      5787      5790      5793      5785      5784      5787      5788
      5785      5784      5787      5789      5785      5784      5787      5790
      5786      5784      5787      5788      5786      5784      5787      5789
      5786      5784      5787      5790      5787      5790      5793      5794
      5787      5790      5793      5795      5787      5790      5793      5796
      5788      5787      5790      5791      5788      5787      5790      5792
      5788      5787      5790      5793      5789      5787      5790      5791
      5789      5787      5790      5792      5789      5787      5790      5793
      5791      5790      5793      5794      5791      5790      5793      5795
      5791      5790      5793      5796      5792      5790      5793      5794
      5792      5790      5793      5795      5792      5790      5793      5796
      5797      5798      5813      5814      5797      5798      5813      5815
      5797      5798      5813      5819      5798      5797      5801      5802
      5798      5797      5801      5803      5798      5797      5801      5804
      5798      5797      5805      5806      5798      5797      5805      5807
      5798      5797      5805      5808      5798      5797      5809      5810
      5798      5797      5809      5811      5798      5797      5809      5812
      5798      5813      5819      5816      5799      5798      5797      5801
      5799      5798      5797      5805      5799      5798      5797      5809
      5799      5798      5813      5814      5799      5798      5813      5815
      5799      5798      5813      5819      5800      5798      5797      5801
      5800      5798      5797      5805      5800      5798      5797      5809
      5800      5798      5813      5814      5800      5798      5813      5815
      5800      5798      5813      5819      5801      5797      5798      5813
      5801      5797      5805      5806      5801      5797      5805      5807
      5801      5797      5805      5808      5801      5797      5809      5810
      5801      5797      5809      5811      5801      5797      5809      5812
      5802      5801      5797      5805      5802      5801      5797      5809
      5803      5801      5797      5805      5803      5801      5797      5809
      5804      5801      5797      5805      5804      5801      5797      5809
      5805      5797      5798      5813      5805      5797      5809      5810
      5805      5797      5809      5811      5805      5797      5809      5812
      5806      5805      5797      5809      5807      5805      5797      5809
      5808      5805      5797      5809      5809      5797      5798      5813
      5813      5819      5816      5817      5813      5819      5816      5818
      5813      5819      5816      5820      5814      5813      5819      5816
      5815      5813      5819      5816      5816      5820      5821      5822
      5816      5820      5821      5823      5816      5820      5821      5824
      5817      5816      5820      5821      5818      5816      5820      5821
      5819      5816      5820      5821      5820      5821      5824      5825
      5820      5821      5824      5826      5820      5821      5824      5832
      5821      5824      5826      5827      5821      5824      5832      5833
      5821      5824      5832      5834      5821      5824      5832      5835
      5822      5821      5824      5825      5822      5821      5824      5826
      5822      5821      5824      5832      5823      5821      5824      5825
      5823      5821      5824      5826      5823      5821      5824      5832
      5824      5826      5827      5828      5824      5826      5827      5829
      5824      5832      5835      5836      5825      5824      5826      5827
      5825      5824      5832      5833      5825      5824      5832      5834
      5825      5824      5832      5835      5826      5824      5832      5833
      5826      5824      5832      5834      5826      5824      5832      5835
      5826      5827      5829      5830      5826      5827      5829      5831
      5826      5827      5829      5841      5827      5826      5824      5832
      5827      5829      5841      5842      5827      5829      5841      5843
      5827      5829      5841      5844      5828      5827      5829      5830
      5828      5827      5829      5831      5828      5827      5829      5841
      5829      5841      5844      5845      5829      5841      5844      5846
      5829      5841      5844      5847      5830      5829      5841      5842
      5830      5829      5841      5843      5830      5829      5841      5844
      5831      5829      5841      5842      5831      5829      5841      5843
      5831      5829      5841      5844      5832      5835      5836      5837
      5832      5835      5836      5838      5833      5832      5835      5836
      5834      5832      5835      5836      5835      5836      5838      5839
      5835      5836      5838      5840      5835      5836      5838      5888
      5836      5838      5888      5889      5836      5838      5888      5890
      5836      5838      5888      5891      5837      5836      5838      5839
      5837      5836      5838      5840      5837      5836      5838      5888
      5838      5888      5891      5892      5838      5888      5891      5893
      5838      5888      5891      5894      5839      5838      5888      5889
      5839      5838      5888      5890      5839      5838      5888      5891
      5840      5838      5888      5889      5840      5838      5888      5890
      5840      5838      5888      5891      5841      5844      5847      5848
      5841      5844      5847      5849      5841      5844      5847      5850
      5842      5841      5844      5845      5842      5841      5844      5846
      5842      5841      5844      5847      5843      5841      5844      5845
      5843      5841      5844      5846      5843      5841      5844      5847
      5844      5847      5850      5851      5844      5847      5850      5852
      5844      5847      5850      5853      5845      5844      5847      5848
      5845      5844      5847      5849      5845      5844      5847      5850
      5846      5844      5847      5848      5846      5844      5847      5849
      5846      5844      5847      5850      5847      5850      5853      5854
      5847      5850      5853      5855      5847      5850      5853      5856
      5848      5847      5850      5851      5848      5847      5850      5852
      5848      5847      5850      5853      5849      5847      5850      5851
      5849      5847      5850      5852      5849      5847      5850      5853
      5850      5853      5856      5857      5850      5853      5856      5858
      5850      5853      5856      5859      5851      5850      5853      5854
      5851      5850      5853      5855      5851      5850      5853      5856
      5852      5850      5853      5854      5852      5850      5853      5855
      5852      5850      5853      5856      5853      5856      5859      5860
      5853      5856      5859      5861      5854      5853      5856      5857
      5854      5853      5856      5858      5854      5853      5856      5859
      5855      5853      5856      5857      5855      5853      5856      5858
      5855      5853      5856      5859      5856      5859      5861      5862
      5856      5859      5861      5863      5857      5856      5859      5860
      5857      5856      5859      5861      5858      5856      5859      5860
      5858      5856      5859      5861      5859      5861      5863      5864
      5859      5861      5863      5865      5859      5861      5863      5866
      5860      5859      5861      5862      5860      5859      5861      5863
      5861      5863      5866      5867      5861      5863      5866      5868
      5861      5863      5866      5869      5862      5861      5863      5864
      5862      5861      5863      5865      5862      5861      5863      5866
      5863      5866      5869      5870      5863      5866      5869      5871
      5863      5866      5869      5872      5864      5863      5866      5867
      5864      5863      5866      5868      5864      5863      5866      5869
      5865      5863      5866      5867      5865      5863      5866      5868
      5865      5863      5866      5869      5866      5869      5872      5873
      5866      5869      5872      5874      5866      5869      5872      5875
      5867      5866      5869      5870      5867      5866      5869      5871
      5867      5866      5869      5872      5868      5866      5869      5870
      5868      5866      5869      5871      5868      5866      5869      5872
      5869      5872      5875      5876      5869      5872      5875      5877
      5869      5872      5875      5878      5870      5869      5872      5873
      5870      5869      5872      5874      5870      5869      5872      5875
      5871      5869      5872      5873      5871      5869      5872      5874
      5871      5869      5872      5875      5872      5875      5878      5879
      5872      5875      5878      5880      5872      5875      5878      5881
      5873      5872      5875      5876      5873      5872      5875      5877
      5873      5872      5875      5878      5874      5872      5875      5876
      5874      5872      5875      5877      5874      5872      5875      5878
      5875      5878      5881      5882      5875      5878      5881      5883
      5875      5878      5881      5884      5876      5875      5878      5879
      5876      5875      5878      5880      5876      5875      5878      5881
      5877      5875      5878      5879      5877      5875      5878      5880
      5877      5875      5878      5881      5878      5881      5884      5885
      5878      5881      5884      5886      5878      5881      5884      5887
      5879      5878      5881      5882      5879      5878      5881      5883
      5879      5878      5881      5884      5880      5878      5881      5882
      5880      5878      5881      5883      5880      5878      5881      5884
      5882      5881      5884      5885      5882      5881      5884      5886
      5882      5881      5884      5887      5883      5881      5884      5885
      5883      5881      5884      5886      5883      5881      5884      5887
      5888      5891      5894      5895      5888      5891      5894      5896
      5888      5891      5894      5897      5889      5888      5891      5892
      5889      5888      5891      5893      5889      5888      5891      5894
      5890      5888      5891      5892      5890      5888      5891      5893
      5890      5888      5891      5894      5891      5894      5897      5898
      5891      5894      5897      5899      5891      5894      5897      5900
      5892      5891      5894      5895      5892      5891      5894      5896
      5892      5891      5894      5897      5893      5891      5894      5895
      5893      5891      5894      5896      5893      5891      5894      5897
      5894      5897      5900      5901      5894      5897      5900      5902
      5894      5897      5900      5903      5895      5894      5897      5898
      5895      5894      5897      5899      5895      5894      5897      5900
      5896      5894      5897      5898      5896      5894      5897      5899
      5896      5894      5897      5900      5897      5900      5903      5904
      5897      5900      5903      5905      5897      5900      5903      5906
      5898      5897      5900      5901      5898      5897      5900      5902
      5898      5897      5900      5903      5899      5897      5900      5901
      5899      5897      5900      5902      5899      5897      5900      5903
      5900      5903      5906      5907      5900      5903      5906      5908
      5901      5900      5903      5904      5901      5900      5903      5905
      5901      5900      5903      5906      5902      5900      5903      5904
      5902      5900      5903      5905      5902      5900      5903      5906
      5903      5906      5908      5909      5903      5906      5908      5910
      5904      5903      5906      5907      5904      5903      5906      5908
      5905      5903      5906      5907      5905      5903      5906      5908
      5906      5908      5910      5911      5906      5908      5910      5912
      5906      5908      5910      5913      5907      5906      5908      5909
      5907      5906      5908      5910      5908      5910      5913      5914
      5908      5910      5913      5915      5908      5910      5913      5916
      5909      5908      5910      5911      5909      5908      5910      5912
      5909      5908      5910      5913      5910      5913      5916      5917
      5910      5913      5916      5918      5910      5913      5916      5919
      5911      5910      5913      5914      5911      5910      5913      5915
      5911      5910      5913      5916      5912      5910      5913      5914
      5912      5910      5913      5915      5912      5910      5913      5916
      5913      5916      5919      5920      5913      5916      5919      5921
      5913      5916      5919      5922      5914      5913      5916      5917
      5914      5913      5916      5918      5914      5913      5916      5919
      5915      5913      5916      5917      5915      5913      5916      5918
      5915      5913      5916      5919      5916      5919      5922      5923
      5916      5919      5922      5924      5916      5919      5922      5925
      5917      5916      5919      5920      5917      5916      5919      5921
      5917      5916      5919      5922      5918      5916      5919      5920
      5918      5916      5919      5921      5918      5916      5919      5922
      5919      5922      5925      5926      5919      5922      5925      5927
      5919      5922      5925      5928      5920      5919      5922      5923
      5920      5919      5922      5924      5920      5919      5922      5925
      5921      5919      5922      5923      5921      5919      5922      5924
      5921      5919      5922      5925      5922      5925      5928      5929
      5922      5925      5928      5930      5922      5925      5928      5931
      5923      5922      5925      5926      5923      5922      5925      5927
      5923      5922      5925      5928      5924      5922      5925      5926
      5924      5922      5925      5927      5924      5922      5925      5928
      5925      5928      5931      5932      5925      5928      5931      5933
      5925      5928      5931      5934      5926      5925      5928      5929
      5926      5925      5928      5930      5926      5925      5928      5931
      5927      5925      5928      5929      5927      5925      5928      5930
      5927      5925      5928      5931      5929      5928      5931      5932
      5929      5928      5931      5933      5929      5928      5931      5934
      5930      5928      5931      5932      5930      5928      5931      5933
      5930      5928      5931      5934      5935      5936      5951      5952
      5935      5936      5951      5953      5935      5936      5951      5957
      5936      5935      5939      5940      5936      5935      5939      5941
      5936      5935      5939      5942      5936      5935      5943      5944
      5936      5935      5943      5945      5936      5935      5943      5946
      5936      5935      5947      5948      5936      5935      5947      5949
      5936      5935      5947      5950      5936      5951      5957      5954
      5937      5936      5935      5939      5937      5936      5935      5943
      5937      5936      5935      5947      5937      5936      5951      5952
      5937      5936      5951      5953      5937      5936      5951      5957
      5938      5936      5935      5939      5938      5936      5935      5943
      5938      5936      5935      5947      5938      5936      5951      5952
      5938      5936      5951      5953      5938      5936      5951      5957
      5939      5935      5936      5951      5939      5935      5943      5944
      5939      5935      5943      5945      5939      5935      5943      5946
      5939      5935      5947      5948      5939      5935      5947      5949
      5939      5935      5947      5950      5940      5939      5935      5943
      5940      5939      5935      5947      5941      5939      5935      5943
      5941      5939      5935      5947      5942      5939      5935      5943
      5942      5939      5935      5947      5943      5935      5936      5951
      5943      5935      5947      5948      5943      5935      5947      5949
      5943      5935      5947      5950      5944      5943      5935      5947
      5945      5943      5935      5947      5946      5943      5935      5947
      5947      5935      5936      5951      5951      5957      5954      5955
      5951      5957      5954      5956      5951      5957      5954      5958
      5952      5951      5957      5954      5953      5951      5957      5954
      5954      5958      5959      5960      5954      5958      5959      5961
      5954      5958      5959      5962      5955      5954      5958      5959
      5956      5954      5958      5959      5957      5954      5958      5959
      5958      5959      5962      5963      5958      5959      5962      5964
      5958      5959      5962      5970      5959      5962      5964      5965
      5959      5962      5970      5971      5959      5962      5970      5972
      5959      5962      5970      5973      5960      5959      5962      5963
      5960      5959      5962      5964      5960      5959      5962      5970
      5961      5959      5962      5963      5961      5959      5962      5964
      5961      5959      5962      5970      5962      5964      5965      5966
      5962      5964      5965      5967      5962      5970      5973      5974
      5963      5962      5964      5965      5963      5962      5970      5971
      5963      5962      5970      5972      5963      5962      5970      5973
      5964      5962      5970      5971      5964      5962      5970      5972
      5964      5962      5970      5973      5964      5965      5967      5968
      5964      5965      5967      5969      5964      5965      5967      5979
      5965      5964      5962      5970      5965      5967      5979      5980
      5965      5967      5979      5981      5965      5967      5979      5982
      5966      5965      5967      5968      5966      5965      5967      5969
      5966      5965      5967      5979      5967      5979      5982      5983
      5967      5979      5982      5984      5967      5979      5982      5985
      5968      5967      5979      5980      5968      5967      5979      5981
      5968      5967      5979      5982      5969      5967      5979      5980
      5969      5967      5979      5981      5969      5967      5979      5982
      5970      5973      5974      5975      5970      5973      5974      5976
      5971      5970      5973      5974      5972      5970      5973      5974
      5973      5974      5976      5977      5973      5974      5976      5978
      5973      5974      5976      6026      5974      5976      6026      6027
      5974      5976      6026      6028      5974      5976      6026      6029
      5975      5974      5976      5977      5975      5974      5976      5978
      5975      5974      5976      6026      5976      6026      6029      6030
      5976      6026      6029      6031      5976      6026      6029      6032
      5977      5976      6026      6027      5977      5976      6026      6028
      5977      5976      6026      6029      5978      5976      6026      6027
      5978      5976      6026      6028      5978      5976      6026      6029
      5979      5982      5985      5986      5979      5982      5985      5987
      5979      5982      5985      5988      5980      5979      5982      5983
      5980      5979      5982      5984      5980      5979      5982      5985
      5981      5979      5982      5983      5981      5979      5982      5984
      5981      5979      5982      5985      5982      5985      5988      5989
      5982      5985      5988      5990      5982      5985      5988      5991
      5983      5982      5985      5986      5983      5982      5985      5987
      5983      5982      5985      5988      5984      5982      5985      5986
      5984      5982      5985      5987      5984      5982      5985      5988
      5985      5988      5991      5992      5985      5988      5991      5993
      5985      5988      5991      5994      5986      5985      5988      5989
      5986      5985      5988      5990      5986      5985      5988      5991
      5987      5985      5988      5989      5987      5985      5988      5990
      5987      5985      5988      5991      5988      5991      5994      5995
      5988      5991      5994      5996      5988      5991      5994      5997
      5989      5988      5991      5992      5989      5988      5991      5993
      5989      5988      5991      5994      5990      5988      5991      5992
      5990      5988      5991      5993      5990      5988      5991      5994
      5991      5994      5997      5998      5991      5994      5997      5999
      5992      5991      5994      5995      5992      5991      5994      5996
      5992      5991      5994      5997      5993      5991      5994      5995
      5993      5991      5994      5996      5993      5991      5994      5997
      5994      5997      5999      6000      5994      5997      5999      6001
      5995      5994      5997      5998      5995      5994      5997      5999
      5996      5994      5997      5998      5996      5994      5997      5999
      5997      5999      6001      6002      5997      5999      6001      6003
      5997      5999      6001      6004      5998      5997      5999      6000
      5998      5997      5999      6001      5999      6001      6004      6005
      5999      6001      6004      6006      5999      6001      6004      6007
      6000      5999      6001      6002      6000      5999      6001      6003
      6000      5999      6001      6004      6001      6004      6007      6008
      6001      6004      6007      6009      6001      6004      6007      6010
      6002      6001      6004      6005      6002      6001      6004      6006
      6002      6001      6004      6007      6003      6001      6004      6005
      6003      6001      6004      6006      6003      6001      6004      6007
      6004      6007      6010      6011      6004      6007      6010      6012
      6004      6007      6010      6013      6005      6004      6007      6008
      6005      6004      6007      6009      6005      6004      6007      6010
      6006      6004      6007      6008      6006      6004      6007      6009
      6006      6004      6007      6010      6007      6010      6013      6014
      6007      6010      6013      6015      6007      6010      6013      6016
      6008      6007      6010      6011      6008      6007      6010      6012
      6008      6007      6010      6013      6009      6007      6010      6011
      6009      6007      6010      6012      6009      6007      6010      6013
      6010      6013      6016      6017      6010      6013      6016      6018
      6010      6013      6016      6019      6011      6010      6013      6014
      6011      6010      6013      6015      6011      6010      6013      6016
      6012      6010      6013      6014      6012      6010      6013      6015
      6012      6010      6013      6016      6013      6016      6019      6020
      6013      6016      6019      6021      6013      6016      6019      6022
      6014      6013      6016      6017      6014      6013      6016      6018
      6014      6013      6016      6019      6015      6013      6016      6017
      6015      6013      6016      6018      6015      6013      6016      6019
      6016      6019      6022      6023      6016      6019      6022      6024
      6016      6019      6022      6025      6017      6016      6019      6020
      6017      6016      6019      6021      6017      6016      6019      6022
      6018      6016      6019      6020      6018      6016      6019      6021
      6018      6016      6019      6022      6020      6019      6022      6023
      6020      6019      6022      6024      6020      6019      6022      6025
      6021      6019      6022      6023      6021      6019      6022      6024
      6021      6019      6022      6025      6026      6029      6032      6033
      6026      6029      6032      6034      6026      6029      6032      6035
      6027      6026      6029      6030      6027      6026      6029      6031
      6027      6026      6029      6032      6028      6026      6029      6030
      6028      6026      6029      6031      6028      6026      6029      6032
      6029      6032      6035      6036      6029      6032      6035      6037
      6029      6032      6035      6038      6030      6029      6032      6033
      6030      6029      6032      6034      6030      6029      6032      6035
      6031      6029      6032      6033      6031      6029      6032      6034
      6031      6029      6032      6035      6032      6035      6038      6039
      6032      6035      6038      6040      6032      6035      6038      6041
      6033      6032      6035      6036      6033      6032      6035      6037
      6033      6032      6035      6038      6034      6032      6035      6036
      6034      6032      6035      6037      6034      6032      6035      6038
      6035      6038      6041      6042      6035      6038      6041      6043
      6035      6038      6041      6044      6036      6035      6038      6039
      6036      6035      6038      6040      6036      6035      6038      6041
      6037      6035      6038      6039      6037      6035      6038      6040
      6037      6035      6038      6041      6038      6041      6044      6045
      6038      6041      6044      6046      6039      6038      6041      6042
      6039      6038      6041      6043      6039      6038      6041      6044
      6040      6038      6041      6042      6040      6038      6041      6043
      6040      6038      6041      6044      6041      6044      6046      6047
      6041      6044      6046      6048      6042      6041      6044      6045
      6042      6041      6044      6046      6043      6041      6044      6045
      6043      6041      6044      6046      6044      6046      6048      6049
      6044      6046      6048      6050      6044      6046      6048      6051
      6045      6044      6046      6047      6045      6044      6046      6048
      6046      6048      6051      6052      6046      6048      6051      6053
      6046      6048      6051      6054      6047      6046      6048      6049
      6047      6046      6048      6050      6047      6046      6048      6051
      6048      6051      6054      6055      6048      6051      6054      6056
      6048      6051      6054      6057      6049      6048      6051      6052
      6049      6048      6051      6053      6049      6048      6051      6054
      6050      6048      6051      6052      6050      6048      6051      6053
      6050      6048      6051      6054      6051      6054      6057      6058
      6051      6054      6057      6059      6051      6054      6057      6060
      6052      6051      6054      6055      6052      6051      6054      6056
      6052      6051      6054      6057      6053      6051      6054      6055
      6053      6051      6054      6056      6053      6051      6054      6057
      6054      6057      6060      6061      6054      6057      6060      6062
      6054      6057      6060      6063      6055      6054      6057      6058
      6055      6054      6057      6059      6055      6054      6057      6060
      6056      6054      6057      6058      6056      6054      6057      6059
      6056      6054      6057      6060      6057      6060      6063      6064
      6057      6060      6063      6065      6057      6060      6063      6066
      6058      6057      6060      6061      6058      6057      6060      6062
      6058      6057      6060      6063      6059      6057      6060      6061
      6059      6057      6060      6062      6059      6057      6060      6063
      6060      6063      6066      6067      6060      6063      6066      6068
      6060      6063      6066      6069      6061      6060      6063      6064
      6061      6060      6063      6065      6061      6060      6063      6066
      6062      6060      6063      6064      6062      6060      6063      6065
      6062      6060      6063      6066      6063      6066      6069      6070
      6063      6066      6069      6071      6063      6066      6069      6072
      6064      6063      6066      6067      6064      6063      6066      6068
      6064      6063      6066      6069      6065      6063      6066      6067
      6065      6063      6066      6068      6065      6063      6066      6069
      6067      6066      6069      6070      6067      6066      6069      6071
      6067      6066      6069      6072      6068      6066      6069      6070
      6068      6066      6069      6071      6068      6066      6069      6072
      6073      6074      6089      6090      6073      6074      6089      6091
      6073      6074      6089      6095      6074      6073      6077      6078
      6074      6073      6077      6079      6074      6073      6077      6080
      6074      6073      6081      6082      6074      6073      6081      6083
      6074      6073      6081      6084      6074      6073      6085      6086
      6074      6073      6085      6087      6074      6073      6085      6088
      6074      6089      6095      6092      6075      6074      6073      6077
      6075      6074      6073      6081      6075      6074      6073      6085
      6075      6074      6089      6090      6075      6074      6089      6091
      6075      6074      6089      6095      6076      6074      6073      6077
      6076      6074      6073      6081      6076      6074      6073      6085
      6076      6074      6089      6090      6076      6074      6089      6091
      6076      6074      6089      6095      6077      6073      6074      6089
      6077      6073      6081      6082      6077      6073      6081      6083
      6077      6073      6081      6084      6077      6073      6085      6086
      6077      6073      6085      6087      6077      6073      6085      6088
      6078      6077      6073      6081      6078      6077      6073      6085
      6079      6077      6073      6081      6079      6077      6073      6085
      6080      6077      6073      6081      6080      6077      6073      6085
      6081      6073      6074      6089      6081      6073      6085      6086
      6081      6073      6085      6087      6081      6073      6085      6088
      6082      6081      6073      6085      6083      6081      6073      6085
      6084      6081      6073      6085      6085      6073      6074      6089
      6089      6095      6092      6093      6089      6095      6092      6094
      6089      6095      6092      6096      6090      6089      6095      6092
      6091      6089      6095      6092      6092      6096      6097      6098
      6092      6096      6097      6099      6092      6096      6097      6100
      6093      6092      6096      6097      6094      6092      6096      6097
      6095      6092      6096      6097      6096      6097      6100      6101
      6096      6097      6100      6102      6096      6097      6100      6108
      6097      6100      6102      6103      6097      6100      6108      6109
      6097      6100      6108      6110      6097      6100      6108      6111
      6098      6097      6100      6101      6098      6097      6100      6102
      6098      6097      6100      6108      6099      6097      6100      6101
      6099      6097      6100      6102      6099      6097      6100      6108
      6100      6102      6103      6104      6100      6102      6103      6105
      6100      6108      6111      6112      6101      6100      6102      6103
      6101      6100      6108      6109      6101      6100      6108      6110
      6101      6100      6108      6111      6102      6100      6108      6109
      6102      6100      6108      6110      6102      6100      6108      6111
      6102      6103      6105      6106      6102      6103      6105      6107
      6102      6103      6105      6117      6103      6102      6100      6108
      6103      6105      6117      6118      6103      6105      6117      6119
      6103      6105      6117      6120      6104      6103      6105      6106
      6104      6103      6105      6107      6104      6103      6105      6117
      6105      6117      6120      6121      6105      6117      6120      6122
      6105      6117      6120      6123      6106      6105      6117      6118
      6106      6105      6117      6119      6106      6105      6117      6120
      6107      6105      6117      6118      6107      6105      6117      6119
      6107      6105      6117      6120      6108      6111      6112      6113
      6108      6111      6112      6114      6109      6108      6111      6112
      6110      6108      6111      6112      6111      6112      6114      6115
      6111      6112      6114      6116      6111      6112      6114      6164
      6112      6114      6164      6165      6112      6114      6164      6166
      6112      6114      6164      6167      6113      6112      6114      6115
      6113      6112      6114      6116      6113      6112      6114      6164
      6114      6164      6167      6168      6114      6164      6167      6169
      6114      6164      6167      6170      6115      6114      6164      6165
      6115      6114      6164      6166      6115      6114      6164      6167
      6116      6114      6164      6165      6116      6114      6164      6166
      6116      6114      6164      6167      6117      6120      6123      6124
      6117      6120      6123      6125      6117      6120      6123      6126
      6118      6117      6120      6121      6118      6117      6120      6122
      6118      6117      6120      6123      6119      6117      6120      6121
      6119      6117      6120      6122      6119      6117      6120      6123
      6120      6123      6126      6127      6120      6123      6126      6128
      6120      6123      6126      6129      6121      6120      6123      6124
      6121      6120      6123      6125      6121      6120      6123      6126
      6122      6120      6123      6124      6122      6120      6123      6125
      6122      6120      6123      6126      6123      6126      6129      6130
      6123      6126      6129      6131      6123      6126      6129      6132
      6124      6123      6126      6127      6124      6123      6126      6128
      6124      6123      6126      6129      6125      6123      6126      6127
      6125      6123      6126      6128      6125      6123      6126      6129
      6126      6129      6132      6133      6126      6129      6132      6134
      6126      6129      6132      6135      6127      6126      6129      6130
      6127      6126      6129      6131      6127      6126      6129      6132
      6128      6126      6129      6130      6128      6126      6129      6131
      6128      6126      6129      6132      6129      6132      6135      6136
      6129      6132      6135      6137      6130      6129      6132      6133
      6130      6129      6132      6134      6130      6129      6132      6135
      6131      6129      6132      6133      6131      6129      6132      6134
      6131      6129      6132      6135      6132      6135      6137      6138
      6132      6135      6137      6139      6133      6132      6135      6136
      6133      6132      6135      6137      6134      6132      6135      6136
      6134      6132      6135      6137      6135      6137      6139      6140
      6135      6137      6139      6141      6135      6137      6139      6142
      6136      6135      6137      6138      6136      6135      6137      6139
      6137      6139      6142      6143      6137      6139      6142      6144
      6137      6139      6142      6145      6138      6137      6139      6140
      6138      6137      6139      6141      6138      6137      6139      6142
      6139      6142      6145      6146      6139      6142      6145      6147
      6139      6142      6145      6148      6140      6139      6142      6143
      6140      6139      6142      6144      6140      6139      6142      6145
      6141      6139      6142      6143      6141      6139      6142      6144
      6141      6139      6142      6145      6142      6145      6148      6149
      6142      6145      6148      6150      6142      6145      6148      6151
      6143      6142      6145      6146      6143      6142      6145      6147
      6143      6142      6145      6148      6144      6142      6145      6146
      6144      6142      6145      6147      6144      6142      6145      6148
      6145      6148      6151      6152      6145      6148      6151      6153
      6145      6148      6151      6154      6146      6145      6148      6149
      6146      6145      6148      6150      6146      6145      6148      6151
      6147      6145      6148      6149      6147      6145      6148      6150
      6147      6145      6148      6151      6148      6151      6154      6155
      6148      6151      6154      6156      6148      6151      6154      6157
      6149      6148      6151      6152      6149      6148      6151      6153
      6149      6148      6151      6154      6150      6148      6151      6152
      6150      6148      6151      6153      6150      6148      6151      6154
      6151      6154      6157      6158      6151      6154      6157      6159
      6151      6154      6157      6160      6152      6151      6154      6155
      6152      6151      6154      6156      6152      6151      6154      6157
      6153      6151      6154      6155      6153      6151      6154      6156
      6153      6151      6154      6157      6154      6157      6160      6161
      6154      6157      6160      6162      6154      6157      6160      6163
      6155      6154      6157      6158      6155      6154      6157      6159
      6155      6154      6157      6160      6156      6154      6157      6158
      6156      6154      6157      6159      6156      6154      6157      6160
      6158      6157      6160      6161      6158      6157      6160      6162
      6158      6157      6160      6163      6159      6157      6160      6161
      6159      6157      6160      6162      6159      6157      6160      6163
      6164      6167      6170      6171      6164      6167      6170      6172
      6164      6167      6170      6173      6165      6164      6167      6168
      6165      6164      6167      6169      6165      6164      6167      6170
      6166      6164      6167      6168      6166      6164      6167      6169
      6166      6164      6167      6170      6167      6170      6173      6174
      6167      6170      6173      6175      6167      6170      6173      6176
      6168      6167      6170      6171      6168      6167      6170      6172
      6168      6167      6170      6173      6169      6167      6170      6171
      6169      6167      6170      6172      6169      6167      6170      6173
      6170      6173      6176      6177      6170      6173      6176      6178
      6170      6173      6176      6179      6171      6170      6173      6174
      6171      6170      6173      6175      6171      6170      6173      6176
      6172      6170      6173      6174      6172      6170      6173      6175
      6172      6170      6173      6176      6173      6176      6179      6180
      6173      6176      6179      6181      6173      6176      6179      6182
      6174      6173      6176      6177      6174      6173      6176      6178
      6174      6173      6176      6179      6175      6173      6176      6177
      6175      6173      6176      6178      6175      6173      6176      6179
      6176      6179      6182      6183      6176      6179      6182      6184
      6177      6176      6179      6180      6177      6176      6179      6181
      6177      6176      6179      6182      6178      6176      6179      6180
      6178      6176      6179      6181      6178      6176      6179      6182
      6179      6182      6184      6185      6179      6182      6184      6186
      6180      6179      6182      6183      6180      6179      6182      6184
      6181      6179      6182      6183      6181      6179      6182      6184
      6182      6184      6186      6187      6182      6184      6186      6188
      6182      6184      6186      6189      6183      6182      6184      6185
      6183      6182      6184      6186      6184      6186      6189      6190
      6184      6186      6189      6191      6184      6186      6189      6192
      6185      6184      6186      6187      6185      6184      6186      6188
      6185      6184      6186      6189      6186      6189      6192      6193
      6186      6189      6192      6194      6186      6189      6192      6195
      6187      6186      6189      6190      6187      6186      6189      6191
      6187      6186      6189      6192      6188      6186      6189      6190
      6188      6186      6189      6191      6188      6186      6189      6192
      6189      6192      6195      6196      6189      6192      6195      6197
      6189      6192      6195      6198      6190      6189      6192      6193
      6190      6189      6192      6194      6190      6189      6192      6195
      6191      6189      6192      6193      6191      6189      6192      6194
      6191      6189      6192      6195      6192      6195      6198      6199
      6192      6195      6198      6200      6192      6195      6198      6201
      6193      6192      6195      6196      6193      6192      6195      6197
      6193      6192      6195      6198      6194      6192      6195      6196
      6194      6192      6195      6197      6194      6192      6195      6198
      6195      6198      6201      6202      6195      6198      6201      6203
      6195      6198      6201      6204      6196      6195      6198      6199
      6196      6195      6198      6200      6196      6195      6198      6201
      6197      6195      6198      6199      6197      6195      6198      6200
      6197      6195      6198      6201      6198      6201      6204      6205
      6198      6201      6204      6206      6198      6201      6204      6207
      6199      6198      6201      6202      6199      6198      6201      6203
      6199      6198      6201      6204      6200      6198      6201      6202
      6200      6198      6201      6203      6200      6198      6201      6204
      6201      6204      6207      6208      6201      6204      6207      6209
      6201      6204      6207      6210      6202      6201      6204      6205
      6202      6201      6204      6206      6202      6201      6204      6207
      6203      6201      6204      6205      6203      6201      6204      6206
      6203      6201      6204      6207      6205      6204      6207      6208
      6205      6204      6207      6209      6205      6204      6207      6210
      6206      6204      6207      6208      6206      6204      6207      6209
      6206      6204      6207      6210      6211      6212      6227      6228
      6211      6212      6227      6229      6211      6212      6227      6233
      6212      6211      6215      6216      6212      6211      6215      6217
      6212      6211      6215      6218      6212      6211      6219      6220
      6212      6211      6219      6221      6212      6211      6219      6222
      6212      6211      6223      6224      6212      6211      6223      6225
      6212      6211      6223      6226      6212      6227      6233      6230
      6213      6212      6211      6215      6213      6212      6211      6219
      6213      6212      6211      6223      6213      6212      6227      6228
      6213      6212      6227      6229      6213      6212      6227      6233
      6214      6212      6211      6215      6214      6212      6211      6219
      6214      6212      6211      6223      6214      6212      6227      6228
      6214      6212      6227      6229      6214      6212      6227      6233
      6215      6211      6212      6227      6215      6211      6219      6220
      6215      6211      6219      6221      6215      6211      6219      6222
      6215      6211      6223      6224      6215      6211      6223      6225
      6215      6211      6223      6226      6216      6215      6211      6219
      6216      6215      6211      6223      6217      6215      6211      6219
      6217      6215      6211      6223      6218      6215      6211      6219
      6218      6215      6211      6223      6219      6211      6212      6227
      6219      6211      6223      6224      6219      6211      6223      6225
      6219      6211      6223      6226      6220      6219      6211      6223
      6221      6219      6211      6223      6222      6219      6211      6223
      6223      6211      6212      6227      6227      6233      6230      6231
      6227      6233      6230      6232      6227      6233      6230      6234
      6228      6227      6233      6230      6229      6227      6233      6230
      6230      6234      6235      6236      6230      6234      6235      6237
      6230      6234      6235      6238      6231      6230      6234      6235
      6232      6230      6234      6235      6233      6230      6234      6235
      6234      6235      6238      6239      6234      6235      6238      6240
      6234      6235      6238      6246      6235      6238      6240      6241
      6235      6238      6246      6247      6235      6238      6246      6248
      6235      6238      6246      6249      6236      6235      6238      6239
      6236      6235      6238      6240      6236      6235      6238      6246
      6237      6235      6238      6239      6237      6235      6238      6240
      6237      6235      6238      6246      6238      6240      6241      6242
      6238      6240      6241      6243      6238      6246      6249      6250
      6239      6238      6240      6241      6239      6238      6246      6247
      6239      6238      6246      6248      6239      6238      6246      6249
      6240      6238      6246      6247      6240      6238      6246      6248
      6240      6238      6246      6249      6240      6241      6243      6244
      6240      6241      6243      6245      6240      6241      6243      6255
      6241      6240      6238      6246      6241      6243      6255      6256
      6241      6243      6255      6257      6241      6243      6255      6258
      6242      6241      6243      6244      6242      6241      6243      6245
      6242      6241      6243      6255      6243      6255      6258      6259
      6243      6255      6258      6260      6243      6255      6258      6261
      6244      6243      6255      6256      6244      6243      6255      6257
      6244      6243      6255      6258      6245      6243      6255      6256
      6245      6243      6255      6257      6245      6243      6255      6258
      6246      6249      6250      6251      6246      6249      6250      6252
      6247      6246      6249      6250      6248      6246      6249      6250
      6249      6250      6252      6253      6249      6250      6252      6254
      6249      6250      6252      6302      6250      6252      6302      6303
      6250      6252      6302      6304      6250      6252      6302      6305
      6251      6250      6252      6253      6251      6250      6252      6254
      6251      6250      6252      6302      6252      6302      6305      6306
      6252      6302      6305      6307      6252      6302      6305      6308
      6253      6252      6302      6303      6253      6252      6302      6304
      6253      6252      6302      6305      6254      6252      6302      6303
      6254      6252      6302      6304      6254      6252      6302      6305
      6255      6258      6261      6262      6255      6258      6261      6263
      6255      6258      6261      6264      6256      6255      6258      6259
      6256      6255      6258      6260      6256      6255      6258      6261
      6257      6255      6258      6259      6257      6255      6258      6260
      6257      6255      6258      6261      6258      6261      6264      6265
      6258      6261      6264      6266      6258      6261      6264      6267
      6259      6258      6261      6262      6259      6258      6261      6263
      6259      6258      6261      6264      6260      6258      6261      6262
      6260      6258      6261      6263      6260      6258      6261      6264
      6261      6264      6267      6268      6261      6264      6267      6269
      6261      6264      6267      6270      6262      6261      6264      6265
      6262      6261      6264      6266      6262      6261      6264      6267
      6263      6261      6264      6265      6263      6261      6264      6266
      6263      6261      6264      6267      6264      6267      6270      6271
      6264      6267      6270      6272      6264      6267      6270      6273
      6265      6264      6267      6268      6265      6264      6267      6269
      6265      6264      6267      6270      6266      6264      6267      6268
      6266      6264      6267      6269      6266      6264      6267      6270
      6267      6270      6273      6274      6267      6270      6273      6275
      6268      6267      6270      6271      6268      6267      6270      6272
      6268      6267      6270      6273      6269      6267      6270      6271
      6269      6267      6270      6272      6269      6267      6270      6273
      6270      6273      6275      6276      6270      6273      6275      6277
      6271      6270      6273      6274      6271      6270      6273      6275
      6272      6270      6273      6274      6272      6270      6273      6275
      6273      6275      6277      6278      6273      6275      6277      6279
      6273      6275      6277      6280      6274      6273      6275      6276
      6274      6273      6275      6277      6275      6277      6280      6281
      6275      6277      6280      6282      6275      6277      6280      6283
      6276      6275      6277      6278      6276      6275      6277      6279
      6276      6275      6277      6280      6277      6280      6283      6284
      6277      6280      6283      6285      6277      6280      6283      6286
      6278      6277      6280      6281      6278      6277      6280      6282
      6278      6277      6280      6283      6279      6277      6280      6281
      6279      6277      6280      6282      6279      6277      6280      6283
      6280      6283      6286      6287      6280      6283      6286      6288
      6280      6283      6286      6289      6281      6280      6283      6284
      6281      6280      6283      6285      6281      6280      6283      6286
      6282      6280      6283      6284      6282      6280      6283      6285
      6282      6280      6283      6286      6283      6286      6289      6290
      6283      6286      6289      6291      6283      6286      6289      6292
      6284      6283      6286      6287      6284      6283      6286      6288
      6284      6283      6286      6289      6285      6283      6286      6287
      6285      6283      6286      6288      6285      6283      6286      6289
      6286      6289      6292      6293      6286      6289      6292      6294
      6286      6289      6292      6295      6287      6286      6289      6290
      6287      6286      6289      6291      6287      6286      6289      6292
      6288      6286      6289      6290      6288      6286      6289      6291
      6288      6286      6289      6292      6289      6292      6295      6296
      6289      6292      6295      6297      6289      6292      6295      6298
      6290      6289      6292      6293      6290      6289      6292      6294
      6290      6289      6292      6295      6291      6289      6292      6293
      6291      6289      6292      6294      6291      6289      6292      6295
      6292      6295      6298      6299      6292      6295      6298      6300
      6292      6295      6298      6301      6293      6292      6295      6296
      6293      6292      6295      6297      6293      6292      6295      6298
      6294      6292      6295      6296      6294      6292      6295      6297
      6294      6292      6295      6298      6296      6295      6298      6299
      6296      6295      6298      6300      6296      6295      6298      6301
      6297      6295      6298      6299      6297      6295      6298      6300
      6297      6295      6298      6301      6302      6305      6308      6309
      6302      6305      6308      6310      6302      6305      6308      6311
      6303      6302      6305      6306      6303      6302      6305      6307
      6303      6302      6305      6308      6304      6302      6305      6306
      6304      6302      6305      6307      6304      6302      6305      6308
      6305      6308      6311      6312      6305      6308      6311      6313
      6305      6308      6311      6314      6306      6305      6308      6309
      6306      6305      6308      6310      6306      6305      6308      6311
      6307      6305      6308      6309      6307      6305      6308      6310
      6307      6305      6308      6311      6308      6311      6314      6315
      6308      6311      6314      6316      6308      6311      6314      6317
      6309      6308      6311      6312      6309      6308      6311      6313
      6309      6308      6311      6314      6310      6308      6311      6312
      6310      6308      6311      6313      6310      6308      6311      6314
      6311      6314      6317      6318      6311      6314      6317      6319
      6311      6314      6317      6320      6312      6311      6314      6315
      6312      6311      6314      6316      6312      6311      6314      6317
      6313      6311      6314      6315      6313      6311      6314      6316
      6313      6311      6314      6317      6314      6317      6320      6321
      6314      6317      6320      6322      6315      6314      6317      6318
      6315      6314      6317      6319      6315      6314      6317      6320
      6316      6314      6317      6318      6316      6314      6317      6319
      6316      6314      6317      6320      6317      6320      6322      6323
      6317      6320      6322      6324      6318      6317      6320      6321
      6318      6317      6320      6322      6319      6317      6320      6321
      6319      6317      6320      6322      6320      6322      6324      6325
      6320      6322      6324      6326      6320      6322      6324      6327
      6321      6320      6322      6323      6321      6320      6322      6324
      6322      6324      6327      6328      6322      6324      6327      6329
      6322      6324      6327      6330      6323      6322      6324      6325
      6323      6322      6324      6326      6323      6322      6324      6327
      6324      6327      6330      6331      6324      6327      6330      6332
      6324      6327      6330      6333      6325      6324      6327      6328
      6325      6324      6327      6329      6325      6324      6327      6330
      6326      6324      6327      6328      6326      6324      6327      6329
      6326      6324      6327      6330      6327      6330      6333      6334
      6327      6330      6333      6335      6327      6330      6333      6336
      6328      6327      6330      6331      6328      6327      6330      6332
      6328      6327      6330      6333      6329      6327      6330      6331
      6329      6327      6330      6332      6329      6327      6330      6333
      6330      6333      6336      6337      6330      6333      6336      6338
      6330      6333      6336      6339      6331      6330      6333      6334
      6331      6330      6333      6335      6331      6330      6333      6336
      6332      6330      6333      6334      6332      6330      6333      6335
      6332      6330      6333      6336      6333      6336      6339      6340
      6333      6336      6339      6341      6333      6336      6339      6342
      6334      6333      6336      6337      6334      6333      6336      6338
      6334      6333      6336      6339      6335      6333      6336      6337
      6335      6333      6336      6338      6335      6333      6336      6339
      6336      6339      6342      6343      6336      6339      6342      6344
      6336      6339      6342      6345      6337      6336      6339      6340
      6337      6336      6339      6341      6337      6336      6339      6342
      6338      6336      6339      6340      6338      6336      6339      6341
      6338      6336      6339      6342      6339      6342      6345      6346
      6339      6342      6345      6347      6339      6342      6345      6348
      6340      6339      6342      6343      6340      6339      6342      6344
      6340      6339      6342      6345      6341      6339      6342      6343
      6341      6339      6342      6344      6341      6339      6342      6345
      6343      6342      6345      6346      6343      6342      6345      6347
      6343      6342      6345      6348      6344      6342      6345      6346
      6344      6342      6345      6347      6344      6342      6345      6348
      6349      6350      6365      6366      6349      6350      6365      6367
      6349      6350      6365      6371      6350      6349      6353      6354
      6350      6349      6353      6355      6350      6349      6353      6356
      6350      6349      6357      6358      6350      6349      6357      6359
      6350      6349      6357      6360      6350      6349      6361      6362
      6350      6349      6361      6363      6350      6349      6361      6364
      6350      6365      6371      6368      6351      6350      6349      6353
      6351      6350      6349      6357      6351      6350      6349      6361
      6351      6350      6365      6366      6351      6350      6365      6367
      6351      6350      6365      6371      6352      6350      6349      6353
      6352      6350      6349      6357      6352      6350      6349      6361
      6352      6350      6365      6366      6352      6350      6365      6367
      6352      6350      6365      6371      6353      6349      6350      6365
      6353      6349      6357      6358      6353      6349      6357      6359
      6353      6349      6357      6360      6353      6349      6361      6362
      6353      6349      6361      6363      6353      6349      6361      6364
      6354      6353      6349      6357      6354      6353      6349      6361
      6355      6353      6349      6357      6355      6353      6349      6361
      6356      6353      6349      6357      6356      6353      6349      6361
      6357      6349      6350      6365      6357      6349      6361      6362
      6357      6349      6361      6363      6357      6349      6361      6364
      6358      6357      6349      6361      6359      6357      6349      6361
      6360      6357      6349      6361      6361      6349      6350      6365
      6365      6371      6368      6369      6365      6371      6368      6370
      6365      6371      6368      6372      6366      6365      6371      6368
      6367      6365      6371      6368      6368      6372      6373      6374
      6368      6372      6373      6375      6368      6372      6373      6376
      6369      6368      6372      6373      6370      6368      6372      6373
      6371      6368      6372      6373      6372      6373      6376      6377
      6372      6373      6376      6378      6372      6373      6376      6384
      6373      6376      6378      6379      6373      6376      6384      6385
      6373      6376      6384      6386      6373      6376      6384      6387
      6374      6373      6376      6377      6374      6373      6376      6378
      6374      6373      6376      6384      6375      6373      6376      6377
      6375      6373      6376      6378      6375      6373      6376      6384
      6376      6378      6379      6380      6376      6378      6379      6381
      6376      6384      6387      6388      6377      6376      6378      6379
      6377      6376      6384      6385      6377      6376      6384      6386
      6377      6376      6384      6387      6378      6376      6384      6385
      6378      6376      6384      6386      6378      6376      6384      6387
      6378      6379      6381      6382      6378      6379      6381      6383
      6378      6379      6381      6393      6379      6378      6376      6384
      6379      6381      6393      6394      6379      6381      6393      6395
      6379      6381      6393      6396      6380      6379      6381      6382
      6380      6379      6381      6383      6380      6379      6381      6393
      6381      6393      6396      6397      6381      6393      6396      6398
      6381      6393      6396      6399      6382      6381      6393      6394
      6382      6381      6393      6395      6382      6381      6393      6396
      6383      6381      6393      6394      6383      6381      6393      6395
      6383      6381      6393      6396      6384      6387      6388      6389
      6384      6387      6388      6390      6385      6384      6387      6388
      6386      6384      6387      6388      6387      6388      6390      6391
      6387      6388      6390      6392      6387      6388      6390      6440
      6388      6390      6440      6441      6388      6390      6440      6442
      6388      6390      6440      6443      6389      6388      6390      6391
      6389      6388      6390      6392      6389      6388      6390      6440
      6390      6440      6443      6444      6390      6440      6443      6445
      6390      6440      6443      6446      6391      6390      6440      6441
      6391      6390      6440      6442      6391      6390      6440      6443
      6392      6390      6440      6441      6392      6390      6440      6442
      6392      6390      6440      6443      6393      6396      6399      6400
      6393      6396      6399      6401      6393      6396      6399      6402
      6394      6393      6396      6397      6394      6393      6396      6398
      6394      6393      6396      6399      6395      6393      6396      6397
      6395      6393      6396      6398      6395      6393      6396      6399
      6396      6399      6402      6403      6396      6399      6402      6404
      6396      6399      6402      6405      6397      6396      6399      6400
      6397      6396      6399      6401      6397      6396      6399      6402
      6398      6396      6399      6400      6398      6396      6399      6401
      6398      6396      6399      6402      6399      6402      6405      6406
      6399      6402      6405      6407      6399      6402      6405      6408
      6400      6399      6402      6403      6400      6399      6402      6404
      6400      6399      6402      6405      6401      6399      6402      6403
      6401      6399      6402      6404      6401      6399      6402      6405
      6402      6405      6408      6409      6402      6405      6408      6410
      6402      6405      6408      6411      6403      6402      6405      6406
      6403      6402      6405      6407      6403      6402      6405      6408
      6404      6402      6405      6406      6404      6402      6405      6407
      6404      6402      6405      6408      6405      6408      6411      6412
      6405      6408      6411      6413      6406      6405      6408      6409
      6406      6405      6408      6410      6406      6405      6408      6411
      6407      6405      6408      6409      6407      6405      6408      6410
      6407      6405      6408      6411      6408      6411      6413      6414
      6408      6411      6413      6415      6409      6408      6411      6412
      6409      6408      6411      6413      6410      6408      6411      6412
      6410      6408      6411      6413      6411      6413      6415      6416
      6411      6413      6415      6417      6411      6413      6415      6418
      6412      6411      6413      6414      6412      6411      6413      6415
      6413      6415      6418      6419      6413      6415      6418      6420
      6413      6415      6418      6421      6414      6413      6415      6416
      6414      6413      6415      6417      6414      6413      6415      6418
      6415      6418      6421      6422      6415      6418      6421      6423
      6415      6418      6421      6424      6416      6415      6418      6419
      6416      6415      6418      6420      6416      6415      6418      6421
      6417      6415      6418      6419      6417      6415      6418      6420
      6417      6415      6418      6421      6418      6421      6424      6425
      6418      6421      6424      6426      6418      6421      6424      6427
      6419      6418      6421      6422      6419      6418      6421      6423
      6419      6418      6421      6424      6420      6418      6421      6422
      6420      6418      6421      6423      6420      6418      6421      6424
      6421      6424      6427      6428      6421      6424      6427      6429
      6421      6424      6427      6430      6422      6421      6424      6425
      6422      6421      6424      6426      6422      6421      6424      6427
      6423      6421      6424      6425      6423      6421      6424      6426
      6423      6421      6424      6427      6424      6427      6430      6431
      6424      6427      6430      6432      6424      6427      6430      6433
      6425      6424      6427      6428      6425      6424      6427      6429
      6425      6424      6427      6430      6426      6424      6427      6428
      6426      6424      6427      6429      6426      6424      6427      6430
      6427      6430      6433      6434      6427      6430      6433      6435
      6427      6430      6433      6436      6428      6427      6430      6431
      6428      6427      6430      6432      6428      6427      6430      6433
      6429      6427      6430      6431      6429      6427      6430      6432
      6429      6427      6430      6433      6430      6433      6436      6437
      6430      6433      6436      6438      6430      6433      6436      6439
      6431      6430      6433      6434      6431      6430      6433      6435
      6431      6430      6433      6436      6432      6430      6433      6434
      6432      6430      6433      6435      6432      6430      6433      6436
      6434      6433      6436      6437      6434      6433      6436      6438
      6434      6433      6436      6439      6435      6433      6436      6437
      6435      6433      6436      6438      6435      6433      6436      6439
      6440      6443      6446      6447      6440      6443      6446      6448
      6440      6443      6446      6449      6441      6440      6443      6444
      6441      6440      6443      6445      6441      6440      6443      6446
      6442      6440      6443      6444      6442      6440      6443      6445
      6442      6440      6443      6446      6443      6446      6449      6450
      6443      6446      6449      6451      6443      6446      6449      6452
      6444      6443      6446      6447      6444      6443      6446      6448
      6444      6443      6446      6449      6445      6443      6446      6447
      6445      6443      6446      6448      6445      6443      6446      6449
      6446      6449      6452      6453      6446      6449      6452      6454
      6446      6449      6452      6455      6447      6446      6449      6450
      6447      6446      6449      6451      6447      6446      6449      6452
      6448      6446      6449      6450      6448      6446      6449      6451
      6448      6446      6449      6452      6449      6452      6455      6456
      6449      6452      6455      6457      6449      6452      6455      6458
      6450      6449      6452      6453      6450      6449      6452      6454
      6450      6449      6452      6455      6451      6449      6452      6453
      6451      6449      6452      6454      6451      6449      6452      6455
      6452      6455      6458      6459      6452      6455      6458      6460
      6453      6452      6455      6456      6453      6452      6455      6457
      6453      6452      6455      6458      6454      6452      6455      6456
      6454      6452      6455      6457      6454      6452      6455      6458
      6455      6458      6460      6461      6455      6458      6460      6462
      6456      6455      6458      6459      6456      6455      6458      6460
      6457      6455      6458      6459      6457      6455      6458      6460
      6458      6460      6462      6463      6458      6460      6462      6464
      6458      6460      6462      6465      6459      6458      6460      6461
      6459      6458      6460      6462      6460      6462      6465      6466
      6460      6462      6465      6467      6460      6462      6465      6468
      6461      6460      6462      6463      6461      6460      6462      6464
      6461      6460      6462      6465      6462      6465      6468      6469
      6462      6465      6468      6470      6462      6465      6468      6471
      6463      6462      6465      6466      6463      6462      6465      6467
      6463      6462      6465      6468      6464      6462      6465      6466
      6464      6462      6465      6467      6464      6462      6465      6468
      6465      6468      6471      6472      6465      6468      6471      6473
      6465      6468      6471      6474      6466      6465      6468      6469
      6466      6465      6468      6470      6466      6465      6468      6471
      6467      6465      6468      6469      6467      6465      6468      6470
      6467      6465      6468      6471      6468      6471      6474      6475
      6468      6471      6474      6476      6468      6471      6474      6477
      6469      6468      6471      6472      6469      6468      6471      6473
      6469      6468      6471      6474      6470      6468      6471      6472
      6470      6468      6471      6473      6470      6468      6471      6474
      6471      6474      6477      6478      6471      6474      6477      6479
      6471      6474      6477      6480      6472      6471      6474      6475
      6472      6471      6474      6476      6472      6471      6474      6477
      6473      6471      6474      6475      6473      6471      6474      6476
      6473      6471      6474      6477      6474      6477      6480      6481
      6474      6477      6480      6482      6474      6477      6480      6483
      6475      6474      6477      6478      6475      6474      6477      6479
      6475      6474      6477      6480      6476      6474      6477      6478
      6476      6474      6477      6479      6476      6474      6477      6480
      6477      6480      6483      6484      6477      6480      6483      6485
      6477      6480      6483      6486      6478      6477      6480      6481
      6478      6477      6480      6482      6478      6477      6480      6483
      6479      6477      6480      6481      6479      6477      6480      6482
      6479      6477      6480      6483      6481      6480      6483      6484
      6481      6480      6483      6485      6481      6480      6483      6486
      6482      6480      6483      6484      6482      6480      6483      6485
      6482      6480      6483      6486      6487      6488      6503      6504
      6487      6488      6503      6505      6487      6488      6503      6509
      6488      6487      6491      6492      6488      6487      6491      6493
      6488      6487      6491      6494      6488      6487      6495      6496
      6488      6487      6495      6497      6488      6487      6495      6498
      6488      6487      6499      6500      6488      6487      6499      6501
      6488      6487      6499      6502      6488      6503      6509      6506
      6489      6488      6487      6491      6489      6488      6487      6495
      6489      6488      6487      6499      6489      6488      6503      6504
      6489      6488      6503      6505      6489      6488      6503      6509
      6490      6488      6487      6491      6490      6488      6487      6495
      6490      6488      6487      6499      6490      6488      6503      6504
      6490      6488      6503      6505      6490      6488      6503      6509
      6491      6487      6488      6503      6491      6487      6495      6496
      6491      6487      6495      6497      6491      6487      6495      6498
      6491      6487      6499      6500      6491      6487      6499      6501
      6491      6487      6499      6502      6492      6491      6487      6495
      6492      6491      6487      6499      6493      6491      6487      6495
      6493      6491      6487      6499      6494      6491      6487      6495
      6494      6491      6487      6499      6495      6487      6488      6503
      6495      6487      6499      6500      6495      6487      6499      6501
      6495      6487      6499      6502      6496      6495      6487      6499
      6497      6495      6487      6499      6498      6495      6487      6499
      6499      6487      6488      6503      6503      6509      6506      6507
      6503      6509      6506      6508      6503      6509      6506      6510
      6504      6503      6509      6506      6505      6503      6509      6506
      6506      6510      6511      6512      6506      6510      6511      6513
      6506      6510      6511      6514      6507      6506      6510      6511
      6508      6506      6510      6511      6509      6506      6510      6511
      6510      6511      6514      6515      6510      6511      6514      6516
      6510      6511      6514      6522      6511      6514      6516      6517
      6511      6514      6522      6523      6511      6514      6522      6524
      6511      6514      6522      6525      6512      6511      6514      6515
      6512      6511      6514      6516      6512      6511      6514      6522
      6513      6511      6514      6515      6513      6511      6514      6516
      6513      6511      6514      6522      6514      6516      6517      6518
      6514      6516      6517      6519      6514      6522      6525      6526
      6515      6514      6516      6517      6515      6514      6522      6523
      6515      6514      6522      6524      6515      6514      6522      6525
      6516      6514      6522      6523      6516      6514      6522      6524
      6516      6514      6522      6525      6516      6517      6519      6520
      6516      6517      6519      6521      6516      6517      6519      6531
      6517      6516      6514      6522      6517      6519      6531      6532
      6517      6519      6531      6533      6517      6519      6531      6534
      6518      6517      6519      6520      6518      6517      6519      6521
      6518      6517      6519      6531      6519      6531      6534      6535
      6519      6531      6534      6536      6519      6531      6534      6537
      6520      6519      6531      6532      6520      6519      6531      6533
      6520      6519      6531      6534      6521      6519      6531      6532
      6521      6519      6531      6533      6521      6519      6531      6534
      6522      6525      6526      6527      6522      6525      6526      6528
      6523      6522      6525      6526      6524      6522      6525      6526
      6525      6526      6528      6529      6525      6526      6528      6530
      6525      6526      6528      6578      6526      6528      6578      6579
      6526      6528      6578      6580      6526      6528      6578      6581
      6527      6526      6528      6529      6527      6526      6528      6530
      6527      6526      6528      6578      6528      6578      6581      6582
      6528      6578      6581      6583      6528      6578      6581      6584
      6529      6528      6578      6579      6529      6528      6578      6580
      6529      6528      6578      6581      6530      6528      6578      6579
      6530      6528      6578      6580      6530      6528      6578      6581
      6531      6534      6537      6538      6531      6534      6537      6539
      6531      6534      6537      6540      6532      6531      6534      6535
      6532      6531      6534      6536      6532      6531      6534      6537
      6533      6531      6534      6535      6533      6531      6534      6536
      6533      6531      6534      6537      6534      6537      6540      6541
      6534      6537      6540      6542      6534      6537      6540      6543
      6535      6534      6537      6538      6535      6534      6537      6539
      6535      6534      6537      6540      6536      6534      6537      6538
      6536      6534      6537      6539      6536      6534      6537      6540
      6537      6540      6543      6544      6537      6540      6543      6545
      6537      6540      6543      6546      6538      6537      6540      6541
      6538      6537      6540      6542      6538      6537      6540      6543
      6539      6537      6540      6541      6539      6537      6540      6542
      6539      6537      6540      6543      6540      6543      6546      6547
      6540      6543      6546      6548      6540      6543      6546      6549
      6541      6540      6543      6544      6541      6540      6543      6545
      6541      6540      6543      6546      6542      6540      6543      6544
      6542      6540      6543      6545      6542      6540      6543      6546
      6543      6546      6549      6550      6543      6546      6549      6551
      6544      6543      6546      6547      6544      6543      6546      6548
      6544      6543      6546      6549      6545      6543      6546      6547
      6545      6543      6546      6548      6545      6543      6546      6549
      6546      6549      6551      6552      6546      6549      6551      6553
      6547      6546      6549      6550      6547      6546      6549      6551
      6548      6546      6549      6550      6548      6546      6549      6551
      6549      6551      6553      6554      6549      6551      6553      6555
      6549      6551      6553      6556      6550      6549      6551      6552
      6550      6549      6551      6553      6551      6553      6556      6557
      6551      6553      6556      6558      6551      6553      6556      6559
      6552      6551      6553      6554      6552      6551      6553      6555
      6552      6551      6553      6556      6553      6556      6559      6560
      6553      6556      6559      6561      6553      6556      6559      6562
      6554      6553      6556      6557      6554      6553      6556      6558
      6554      6553      6556      6559      6555      6553      6556      6557
      6555      6553      6556      6558      6555      6553      6556      6559
      6556      6559      6562      6563      6556      6559      6562      6564
      6556      6559      6562      6565      6557      6556      6559      6560
      6557      6556      6559      6561      6557      6556      6559      6562
      6558      6556      6559      6560      6558      6556      6559      6561
      6558      6556      6559      6562      6559      6562      6565      6566
      6559      6562      6565      6567      6559      6562      6565      6568
      6560      6559      6562      6563      6560      6559      6562      6564
      6560      6559      6562      6565      6561      6559      6562      6563
      6561      6559      6562      6564      6561      6559      6562      6565
      6562      6565      6568      6569      6562      6565      6568      6570
      6562      6565      6568      6571      6563      6562      6565      6566
      6563      6562      6565      6567      6563      6562      6565      6568
      6564      6562      6565      6566      6564      6562      6565      6567
      6564      6562      6565      6568      6565      6568      6571      6572
      6565      6568      6571      6573      6565      6568      6571      6574
      6566      6565      6568      6569      6566      6565      6568      6570
      6566      6565      6568      6571      6567      6565      6568      6569
      6567      6565      6568      6570      6567      6565      6568      6571
      6568      6571      6574      6575      6568      6571      6574      6576
      6568      6571      6574      6577      6569      6568      6571      6572
      6569      6568      6571      6573      6569      6568      6571      6574
      6570      6568      6571      6572      6570      6568      6571      6573
      6570      6568      6571      6574      6572      6571      6574      6575
      6572      6571      6574      6576      6572      6571      6574      6577
      6573      6571      6574      6575      6573      6571      6574      6576
      6573      6571      6574      6577      6578      6581      6584      6585
      6578      6581      6584      6586      6578      6581      6584      6587
      6579      6578      6581      6582      6579      6578      6581      6583
      6579      6578      6581      6584      6580      6578      6581      6582
      6580      6578      6581      6583      6580      6578      6581      6584
      6581      6584      6587      6588      6581      6584      6587      6589
      6581      6584      6587      6590      6582      6581      6584      6585
      6582      6581      6584      6586      6582      6581      6584      6587
      6583      6581      6584      6585      6583      6581      6584      6586
      6583      6581      6584      6587      6584      6587      6590      6591
      6584      6587      6590      6592      6584      6587      6590      6593
      6585      6584      6587      6588      6585      6584      6587      6589
      6585      6584      6587      6590      6586      6584      6587      6588
      6586      6584      6587      6589      6586      6584      6587      6590
      6587      6590      6593      6594      6587      6590      6593      6595
      6587      6590      6593      6596      6588      6587      6590      6591
      6588      6587      6590      6592      6588      6587      6590      6593
      6589      6587      6590      6591      6589      6587      6590      6592
      6589      6587      6590      6593      6590      6593      6596      6597
      6590      6593      6596      6598      6591      6590      6593      6594
      6591      6590      6593      6595      6591      6590      6593      6596
      6592      6590      6593      6594      6592      6590      6593      6595
      6592      6590      6593      6596      6593      6596      6598      6599
      6593      6596      6598      6600      6594      6593      6596      6597
      6594      6593      6596      6598      6595      6593      6596      6597
      6595      6593      6596      6598      6596      6598      6600      6601
      6596      6598      6600      6602      6596      6598      6600      6603
      6597      6596      6598      6599      6597      6596      6598      6600
      6598      6600      6603      6604      6598      6600      6603      6605
      6598      6600      6603      6606      6599      6598      6600      6601
      6599      6598      6600      6602      6599      6598      6600      6603
      6600      6603      6606      6607      6600      6603      6606      6608
      6600      6603      6606      6609      6601      6600      6603      6604
      6601      6600      6603      6605      6601      6600      6603      6606
      6602      6600      6603      6604      6602      6600      6603      6605
      6602      6600      6603      6606      6603      6606      6609      6610
      6603      6606      6609      6611      6603      6606      6609      6612
      6604      6603      6606      6607      6604      6603      6606      6608
      6604      6603      6606      6609      6605      6603      6606      6607
      6605      6603      6606      6608      6605      6603      6606      6609
      6606      6609      6612      6613      6606      6609      6612      6614
      6606      6609      6612      6615      6607      6606      6609      6610
      6607      6606      6609      6611      6607      6606      6609      6612
      6608      6606      6609      6610      6608      6606      6609      6611
      6608      6606      6609      6612      6609      6612      6615      6616
      6609      6612      6615      6617      6609      6612      6615      6618
      6610      6609      6612      6613      6610      6609      6612      6614
      6610      6609      6612      6615      6611      6609      6612      6613
      6611      6609      6612      6614      6611      6609      6612      6615
      6612      6615      6618      6619      6612      6615      6618      6620
      6612      6615      6618      6621      6613      6612      6615      6616
      6613      6612      6615      6617      6613      6612      6615      6618
      6614      6612      6615      6616      6614      6612      6615      6617
      6614      6612      6615      6618      6615      6618      6621      6622
      6615      6618      6621      6623      6615      6618      6621      6624
      6616      6615      6618      6619      6616      6615      6618      6620
      6616      6615      6618      6621      6617      6615      6618      6619
      6617      6615      6618      6620      6617      6615      6618      6621
      6619      6618      6621      6622      6619      6618      6621      6623
      6619      6618      6621      6624      6620      6618      6621      6622
      6620      6618      6621      6623      6620      6618      6621      6624
      6625      6626      6641      6642      6625      6626      6641      6643
      6625      6626      6641      6647      6626      6625      6629      6630
      6626      6625      6629      6631      6626      6625      6629      6632
      6626      6625      6633      6634      6626      6625      6633      6635
      6626      6625      6633      6636      6626      6625      6637      6638
      6626      6625      6637      6639      6626      6625      6637      6640
      6626      6641      6647      6644      6627      6626      6625      6629
      6627      6626      6625      6633      6627      6626      6625      6637
      6627      6626      6641      6642      6627      6626      6641      6643
      6627      6626      6641      6647      6628      6626      6625      6629
      6628      6626      6625      6633      6628      6626      6625      6637
      6628      6626      6641      6642      6628      6626      6641      6643
      6628      6626      6641      6647      6629      6625      6626      6641
      6629      6625      6633      6634      6629      6625      6633      6635
      6629      6625      6633      6636      6629      6625      6637      6638
      6629      6625      6637      6639      6629      6625      6637      6640
      6630      6629      6625      6633      6630      6629      6625      6637
      6631      6629      6625      6633      6631      6629      6625      6637
      6632      6629      6625      6633      6632      6629      6625      6637
      6633      6625      6626      6641      6633      6625      6637      6638
      6633      6625      6637      6639      6633      6625      6637      6640
      6634      6633      6625      6637      6635      6633      6625      6637
      6636      6633      6625      6637      6637      6625      6626      6641
      6641      6647      6644      6645      6641      6647      6644      6646
      6641      6647      6644      6648      6642      6641      6647      6644
      6643      6641      6647      6644      6644      6648      6649      6650
      6644      6648      6649      6651      6644      6648      6649      6652
      6645      6644      6648      6649      6646      6644      6648      6649
      6647      6644      6648      6649      6648      6649      6652      6653
      6648      6649      6652      6654      6648      6649      6652      6660
      6649      6652      6654      6655      6649      6652      6660      6661
      6649      6652      6660      6662      6649      6652      6660      6663
      6650      6649      6652      6653      6650      6649      6652      6654
      6650      6649      6652      6660      6651      6649      6652      6653
      6651      6649      6652      6654      6651      6649      6652      6660
      6652      6654      6655      6656      6652      6654      6655      6657
      6652      6660      6663      6664      6653      6652      6654      6655
      6653      6652      6660      6661      6653      6652      6660      6662
      6653      6652      6660      6663      6654      6652      6660      6661
      6654      6652      6660      6662      6654      6652      6660      6663
      6654      6655      6657      6658      6654      6655      6657      6659
      6654      6655      6657      6669      6655      6654      6652      6660
      6655      6657      6669      6670      6655      6657      6669      6671
      6655      6657      6669      6672      6656      6655      6657      6658
      6656      6655      6657      6659      6656      6655      6657      6669
      6657      6669      6672      6673      6657      6669      6672      6674
      6657      6669      6672      6675      6658      6657      6669      6670
      6658      6657      6669      6671      6658      6657      6669      6672
      6659      6657      6669      6670      6659      6657      6669      6671
      6659      6657      6669      6672      6660      6663      6664      6665
      6660      6663      6664      6666      6661      6660      6663      6664
      6662      6660      6663      6664      6663      6664      6666      6667
      6663      6664      6666      6668      6663      6664      6666      6716
      6664      6666      6716      6717      6664      6666      6716      6718
      6664      6666      6716      6719      6665      6664      6666      6667
      6665      6664      6666      6668      6665      6664      6666      6716
      6666      6716      6719      6720      6666      6716      6719      6721
      6666      6716      6719      6722      6667      6666      6716      6717
      6667      6666      6716      6718      6667      6666      6716      6719
      6668      6666      6716      6717      6668      6666      6716      6718
      6668      6666      6716      6719      6669      6672      6675      6676
      6669      6672      6675      6677      6669      6672      6675      6678
      6670      6669      6672      6673      6670      6669      6672      6674
      6670      6669      6672      6675      6671      6669      6672      6673
      6671      6669      6672      6674      6671      6669      6672      6675
      6672      6675      6678      6679      6672      6675      6678      6680
      6672      6675      6678      6681      6673      6672      6675      6676
      6673      6672      6675      6677      6673      6672      6675      6678
      6674      6672      6675      6676      6674      6672      6675      6677
      6674      6672      6675      6678      6675      6678      6681      6682
      6675      6678      6681      6683      6675      6678      6681      6684
      6676      6675      6678      6679      6676      6675      6678      6680
      6676      6675      6678      6681      6677      6675      6678      6679
      6677      6675      6678      6680      6677      6675      6678      6681
      6678      6681      6684      6685      6678      6681      6684      6686
      6678      6681      6684      6687      6679      6678      6681      6682
      6679      6678      6681      6683      6679      6678      6681      6684
      6680      6678      6681      6682      6680      6678      6681      6683
      6680      6678      6681      6684      6681      6684      6687      6688
      6681      6684      6687      6689      6682      6681      6684      6685
      6682      6681      6684      6686      6682      6681      6684      6687
      6683      6681      6684      6685      6683      6681      6684      6686
      6683      6681      6684      6687      6684      6687      6689      6690
      6684      6687      6689      6691      6685      6684      6687      6688
      6685      6684      6687      6689      6686      6684      6687      6688
      6686      6684      6687      6689      6687      6689      6691      6692
      6687      6689      6691      6693      6687      6689      6691      6694
      6688      6687      6689      6690      6688      6687      6689      6691
      6689      6691      6694      6695      6689      6691      6694      6696
      6689      6691      6694      6697      6690      6689      6691      6692
      6690      6689      6691      6693      6690      6689      6691      6694
      6691      6694      6697      6698      6691      6694      6697      6699
      6691      6694      6697      6700      6692      6691      6694      6695
      6692      6691      6694      6696      6692      6691      6694      6697
      6693      6691      6694      6695      6693      6691      6694      6696
      6693      6691      6694      6697      6694      6697      6700      6701
      6694      6697      6700      6702      6694      6697      6700      6703
      6695      6694      6697      6698      6695      6694      6697      6699
      6695      6694      6697      6700      6696      6694      6697      6698
      6696      6694      6697      6699      6696      6694      6697      6700
      6697      6700      6703      6704      6697      6700      6703      6705
      6697      6700      6703      6706      6698      6697      6700      6701
      6698      6697      6700      6702      6698      6697      6700      6703
      6699      6697      6700      6701      6699      6697      6700      6702
      6699      6697      6700      6703      6700      6703      6706      6707
      6700      6703      6706      6708      6700      6703      6706      6709
      6701      6700      6703      6704      6701      6700      6703      6705
      6701      6700      6703      6706      6702      6700      6703      6704
      6702      6700      6703      6705      6702      6700      6703      6706
      6703      6706      6709      6710      6703      6706      6709      6711
      6703      6706      6709      6712      6704      6703      6706      6707
      6704      6703      6706      6708      6704      6703      6706      6709
      6705      6703      6706      6707      6705      6703      6706      6708
      6705      6703      6706      6709      6706      6709      6712      6713
      6706      6709      6712      6714      6706      6709      6712      6715
      6707      6706      6709      6710      6707      6706      6709      6711
      6707      6706      6709      6712      6708      6706      6709      6710
      6708      6706      6709      6711      6708      6706      6709      6712
      6710      6709      6712      6713      6710      6709      6712      6714
      6710      6709      6712      6715      6711      6709      6712      6713
      6711      6709      6712      6714      6711      6709      6712      6715
      6716      6719      6722      6723      6716      6719      6722      6724
      6716      6719      6722      6725      6717      6716      6719      6720
      6717      6716      6719      6721      6717      6716      6719      6722
      6718      6716      6719      6720      6718      6716      6719      6721
      6718      6716      6719      6722      6719      6722      6725      6726
      6719      6722      6725      6727      6719      6722      6725      6728
      6720      6719      6722      6723      6720      6719      6722      6724
      6720      6719      6722      6725      6721      6719      6722      6723
      6721      6719      6722      6724      6721      6719      6722      6725
      6722      6725      6728      6729      6722      6725      6728      6730
      6722      6725      6728      6731      6723      6722      6725      6726
      6723      6722      6725      6727      6723      6722      6725      6728
      6724      6722      6725      6726      6724      6722      6725      6727
      6724      6722      6725      6728      6725      6728      6731      6732
      6725      6728      6731      6733      6725      6728      6731      6734
      6726      6725      6728      6729      6726      6725      6728      6730
      6726      6725      6728      6731      6727      6725      6728      6729
      6727      6725      6728      6730      6727      6725      6728      6731
      6728      6731      6734      6735      6728      6731      6734      6736
      6729      6728      6731      6732      6729      6728      6731      6733
      6729      6728      6731      6734      6730      6728      6731      6732
      6730      6728      6731      6733      6730      6728      6731      6734
      6731      6734      6736      6737      6731      6734      6736      6738
      6732      6731      6734      6735      6732      6731      6734      6736
      6733      6731      6734      6735      6733      6731      6734      6736
      6734      6736      6738      6739      6734      6736      6738      6740
      6734      6736      6738      6741      6735      6734      6736      6737
      6735      6734      6736      6738      6736      6738      6741      6742
      6736      6738      6741      6743      6736      6738      6741      6744
      6737      6736      6738      6739      6737      6736      6738      6740
      6737      6736      6738      6741      6738      6741      6744      6745
      6738      6741      6744      6746      6738      6741      6744      6747
      6739      6738      6741      6742      6739      6738      6741      6743
      6739      6738      6741      6744      6740      6738      6741      6742
      6740      6738      6741      6743      6740      6738      6741      6744
      6741      6744      6747      6748      6741      6744      6747      6749
      6741      6744      6747      6750      6742      6741      6744      6745
      6742      6741      6744      6746      6742      6741      6744      6747
      6743      6741      6744      6745      6743      6741      6744      6746
      6743      6741      6744      6747      6744      6747      6750      6751
      6744      6747      6750      6752      6744      6747      6750      6753
      6745      6744      6747      6748      6745      6744      6747      6749
      6745      6744      6747      6750      6746      6744      6747      6748
      6746      6744      6747      6749      6746      6744      6747      6750
      6747      6750      6753      6754      6747      6750      6753      6755
      6747      6750      6753      6756      6748      6747      6750      6751
      6748      6747      6750      6752      6748      6747      6750      6753
      6749      6747      6750      6751      6749      6747      6750      6752
      6749      6747      6750      6753      6750      6753      6756      6757
      6750      6753      6756      6758      6750      6753      6756      6759
      6751      6750      6753      6754      6751      6750      6753      6755
      6751      6750      6753      6756      6752      6750      6753      6754
      6752      6750      6753      6755      6752      6750      6753      6756
      6753      6756      6759      6760      6753      6756      6759      6761
      6753      6756      6759      6762      6754      6753      6756      6757
      6754      6753      6756      6758      6754      6753      6756      6759
      6755      6753      6756      6757      6755      6753      6756      6758
      6755      6753      6756      6759      6757      6756      6759      6760
      6757      6756      6759      6761      6757      6756      6759      6762
      6758      6756      6759      6760      6758      6756      6759      6761
      6758      6756      6759      6762      6763      6764      6779      6780
      6763      6764      6779      6781      6763      6764      6779      6785
      6764      6763      6767      6768      6764      6763      6767      6769
      6764      6763      6767      6770      6764      6763      6771      6772
      6764      6763      6771      6773      6764      6763      6771      6774
      6764      6763      6775      6776      6764      6763      6775      6777
      6764      6763      6775      6778      6764      6779      6785      6782
      6765      6764      6763      6767      6765      6764      6763      6771
      6765      6764      6763      6775      6765      6764      6779      6780
      6765      6764      6779      6781      6765      6764      6779      6785
      6766      6764      6763      6767      6766      6764      6763      6771
      6766      6764      6763      6775      6766      6764      6779      6780
      6766      6764      6779      6781      6766      6764      6779      6785
      6767      6763      6764      6779      6767      6763      6771      6772
      6767      6763      6771      6773      6767      6763      6771      6774
      6767      6763      6775      6776      6767      6763      6775      6777
      6767      6763      6775      6778      6768      6767      6763      6771
      6768      6767      6763      6775      6769      6767      6763      6771
      6769      6767      6763      6775      6770      6767      6763      6771
      6770      6767      6763      6775      6771      6763      6764      6779
      6771      6763      6775      6776      6771      6763      6775      6777
      6771      6763      6775      6778      6772      6771      6763      6775
      6773      6771      6763      6775      6774      6771      6763      6775
      6775      6763      6764      6779      6779      6785      6782      6783
      6779      6785      6782      6784      6779      6785      6782      6786
      6780      6779      6785      6782      6781      6779      6785      6782
      6782      6786      6787      6788      6782      6786      6787      6789
      6782      6786      6787      6790      6783      6782      6786      6787
      6784      6782      6786      6787      6785      6782      6786      6787
      6786      6787      6790      6791      6786      6787      6790      6792
      6786      6787      6790      6798      6787      6790      6792      6793
      6787      6790      6798      6799      6787      6790      6798      6800
      6787      6790      6798      6801      6788      6787      6790      6791
      6788      6787      6790      6792      6788      6787      6790      6798
      6789      6787      6790      6791      6789      6787      6790      6792
      6789      6787      6790      6798      6790      6792      6793      6794
      6790      6792      6793      6795      6790      6798      6801      6802
      6791      6790      6792      6793      6791      6790      6798      6799
      6791      6790      6798      6800      6791      6790      6798      6801
      6792      6790      6798      6799      6792      6790      6798      6800
      6792      6790      6798      6801      6792      6793      6795      6796
      6792      6793      6795      6797      6792      6793      6795      6807
      6793      6792      6790      6798      6793      6795      6807      6808
      6793      6795      6807      6809      6793      6795      6807      6810
      6794      6793      6795      6796      6794      6793      6795      6797
      6794      6793      6795      6807      6795      6807      6810      6811
      6795      6807      6810      6812      6795      6807      6810      6813
      6796      6795      6807      6808      6796      6795      6807      6809
      6796      6795      6807      6810      6797      6795      6807      6808
      6797      6795      6807      6809      6797      6795      6807      6810
      6798      6801      6802      6803      6798      6801      6802      6804
      6799      6798      6801      6802      6800      6798      6801      6802
      6801      6802      6804      6805      6801      6802      6804      6806
      6801      6802      6804      6854      6802      6804      6854      6855
      6802      6804      6854      6856      6802      6804      6854      6857
      6803      6802      6804      6805      6803      6802      6804      6806
      6803      6802      6804      6854      6804      6854      6857      6858
      6804      6854      6857      6859      6804      6854      6857      6860
      6805      6804      6854      6855      6805      6804      6854      6856
      6805      6804      6854      6857      6806      6804      6854      6855
      6806      6804      6854      6856      6806      6804      6854      6857
      6807      6810      6813      6814      6807      6810      6813      6815
      6807      6810      6813      6816      6808      6807      6810      6811
      6808      6807      6810      6812      6808      6807      6810      6813
      6809      6807      6810      6811      6809      6807      6810      6812
      6809      6807      6810      6813      6810      6813      6816      6817
      6810      6813      6816      6818      6810      6813      6816      6819
      6811      6810      6813      6814      6811      6810      6813      6815
      6811      6810      6813      6816      6812      6810      6813      6814
      6812      6810      6813      6815      6812      6810      6813      6816
      6813      6816      6819      6820      6813      6816      6819      6821
      6813      6816      6819      6822      6814      6813      6816      6817
      6814      6813      6816      6818      6814      6813      6816      6819
      6815      6813      6816      6817      6815      6813      6816      6818
      6815      6813      6816      6819      6816      6819      6822      6823
      6816      6819      6822      6824      6816      6819      6822      6825
      6817      6816      6819      6820      6817      6816      6819      6821
      6817      6816      6819      6822      6818      6816      6819      6820
      6818      6816      6819      6821      6818      6816      6819      6822
      6819      6822      6825      6826      6819      6822      6825      6827
      6820      6819      6822      6823      6820      6819      6822      6824
      6820      6819      6822      6825      6821      6819      6822      6823
      6821      6819      6822      6824      6821      6819      6822      6825
      6822      6825      6827      6828      6822      6825      6827      6829
      6823      6822      6825      6826      6823      6822      6825      6827
      6824      6822      6825      6826      6824      6822      6825      6827
      6825      6827      6829      6830      6825      6827      6829      6831
      6825      6827      6829      6832      6826      6825      6827      6828
      6826      6825      6827      6829      6827      6829      6832      6833
      6827      6829      6832      6834      6827      6829      6832      6835
      6828      6827      6829      6830      6828      6827      6829      6831
      6828      6827      6829      6832      6829      6832      6835      6836
      6829      6832      6835      6837      6829      6832      6835      6838
      6830      6829      6832      6833      6830      6829      6832      6834
      6830      6829      6832      6835      6831      6829      6832      6833
      6831      6829      6832      6834      6831      6829      6832      6835
      6832      6835      6838      6839      6832      6835      6838      6840
      6832      6835      6838      6841      6833      6832      6835      6836
      6833      6832      6835      6837      6833      6832      6835      6838
      6834      6832      6835      6836      6834      6832      6835      6837
      6834      6832      6835      6838      6835      6838      6841      6842
      6835      6838      6841      6843      6835      6838      6841      6844
      6836      6835      6838      6839      6836      6835      6838      6840
      6836      6835      6838      6841      6837      6835      6838      6839
      6837      6835      6838      6840      6837      6835      6838      6841
      6838      6841      6844      6845      6838      6841      6844      6846
      6838      6841      6844      6847      6839      6838      6841      6842
      6839      6838      6841      6843      6839      6838      6841      6844
      6840      6838      6841      6842      6840      6838      6841      6843
      6840      6838      6841      6844      6841      6844      6847      6848
      6841      6844      6847      6849      6841      6844      6847      6850
      6842      6841      6844      6845      6842      6841      6844      6846
      6842      6841      6844      6847      6843      6841      6844      6845
      6843      6841      6844      6846      6843      6841      6844      6847
      6844      6847      6850      6851      6844      6847      6850      6852
      6844      6847      6850      6853      6845      6844      6847      6848
      6845      6844      6847      6849      6845      6844      6847      6850
      6846      6844      6847      6848      6846      6844      6847      6849
      6846      6844      6847      6850      6848      6847      6850      6851
      6848      6847      6850      6852      6848      6847      6850      6853
      6849      6847      6850      6851      6849      6847      6850      6852
      6849      6847      6850      6853      6854      6857      6860      6861
      6854      6857      6860      6862      6854      6857      6860      6863
      6855      6854      6857      6858      6855      6854      6857      6859
      6855      6854      6857      6860      6856      6854      6857      6858
      6856      6854      6857      6859      6856      6854      6857      6860
      6857      6860      6863      6864      6857      6860      6863      6865
      6857      6860      6863      6866      6858      6857      6860      6861
      6858      6857      6860      6862      6858      6857      6860      6863
      6859      6857      6860      6861      6859      6857      6860      6862
      6859      6857      6860      6863      6860      6863      6866      6867
      6860      6863      6866      6868      6860      6863      6866      6869
      6861      6860      6863      6864      6861      6860      6863      6865
      6861      6860      6863      6866      6862      6860      6863      6864
      6862      6860      6863      6865      6862      6860      6863      6866
      6863      6866      6869      6870      6863      6866      6869      6871
      6863      6866      6869      6872      6864      6863      6866      6867
      6864      6863      6866      6868      6864      6863      6866      6869
      6865      6863      6866      6867      6865      6863      6866      6868
      6865      6863      6866      6869      6866      6869      6872      6873
      6866      6869      6872      6874      6867      6866      6869      6870
      6867      6866      6869      6871      6867      6866      6869      6872
      6868      6866      6869      6870      6868      6866      6869      6871
      6868      6866      6869      6872      6869      6872      6874      6875
      6869      6872      6874      6876      6870      6869      6872      6873
      6870      6869      6872      6874      6871      6869      6872      6873
      6871      6869      6872      6874      6872      6874      6876      6877
      6872      6874      6876      6878      6872      6874      6876      6879
      6873      6872      6874      6875      6873      6872      6874      6876
      6874      6876      6879      6880      6874      6876      6879      6881
      6874      6876      6879      6882      6875      6874      6876      6877
      6875      6874      6876      6878      6875      6874      6876      6879
      6876      6879      6882      6883      6876      6879      6882      6884
      6876      6879      6882      6885      6877      6876      6879      6880
      6877      6876      6879      6881      6877      6876      6879      6882
      6878      6876      6879      6880      6878      6876      6879      6881
      6878      6876      6879      6882      6879      6882      6885      6886
      6879      6882      6885      6887      6879      6882      6885      6888
      6880      6879      6882      6883      6880      6879      6882      6884
      6880      6879      6882      6885      6881      6879      6882      6883
      6881      6879      6882      6884      6881      6879      6882      6885
      6882      6885      6888      6889      6882      6885      6888      6890
      6882      6885      6888      6891      6883      6882      6885      6886
      6883      6882      6885      6887      6883      6882      6885      6888
      6884      6882      6885      6886      6884      6882      6885      6887
      6884      6882      6885      6888      6885      6888      6891      6892
      6885      6888      6891      6893      6885      6888      6891      6894
      6886      6885      6888      6889      6886      6885      6888      6890
      6886      6885      6888      6891      6887      6885      6888      6889
      6887      6885      6888      6890      6887      6885      6888      6891
      6888      6891      6894      6895      6888      6891      6894      6896
      6888      6891      6894      6897      6889      6888      6891      6892
      6889      6888      6891      6893      6889      6888      6891      6894
      6890      6888      6891      6892      6890      6888      6891      6893
      6890      6888      6891      6894      6891      6894      6897      6898
      6891      6894      6897      6899      6891      6894      6897      6900
      6892      6891      6894      6895      6892      6891      6894      6896
      6892      6891      6894      6897      6893      6891      6894      6895
      6893      6891      6894      6896      6893      6891      6894      6897
      6895      6894      6897      6898      6895      6894      6897      6899
      6895      6894      6897      6900      6896      6894      6897      6898
      6896      6894      6897      6899      6896      6894      6897      6900
      6901      6902      6917      6918      6901      6902      6917      6919
      6901      6902      6917      6923      6902      6901      6905      6906
      6902      6901      6905      6907      6902      6901      6905      6908
      6902      6901      6909      6910      6902      6901      6909      6911
      6902      6901      6909      6912      6902      6901      6913      6914
      6902      6901      6913      6915      6902      6901      6913      6916
      6902      6917      6923      6920      6903      6902      6901      6905
      6903      6902      6901      6909      6903      6902      6901      6913
      6903      6902      6917      6918      6903      6902      6917      6919
      6903      6902      6917      6923      6904      6902      6901      6905
      6904      6902      6901      6909      6904      6902      6901      6913
      6904      6902      6917      6918      6904      6902      6917      6919
      6904      6902      6917      6923      6905      6901      6902      6917
      6905      6901      6909      6910      6905      6901      6909      6911
      6905      6901      6909      6912      6905      6901      6913      6914
      6905      6901      6913      6915      6905      6901      6913      6916
      6906      6905      6901      6909      6906      6905      6901      6913
      6907      6905      6901      6909      6907      6905      6901      6913
      6908      6905      6901      6909      6908      6905      6901      6913
      6909      6901      6902      6917      6909      6901      6913      6914
      6909      6901      6913      6915      6909      6901      6913      6916
      6910      6909      6901      6913      6911      6909      6901      6913
      6912      6909      6901      6913      6913      6901      6902      6917
      6917      6923      6920      6921      6917      6923      6920      6922
      6917      6923      6920      6924      6918      6917      6923      6920
      6919      6917      6923      6920      6920      6924      6925      6926
      6920      6924      6925      6927      6920      6924      6925      6928
      6921      6920      6924      6925      6922      6920      6924      6925
      6923      6920      6924      6925      6924      6925      6928      6929
      6924      6925      6928      6930      6924      6925      6928      6936
      6925      6928      6930      6931      6925      6928      6936      6937
      6925      6928      6936      6938      6925      6928      6936      6939
      6926      6925      6928      6929      6926      6925      6928      6930
      6926      6925      6928      6936      6927      6925      6928      6929
      6927      6925      6928      6930      6927      6925      6928      6936
      6928      6930      6931      6932      6928      6930      6931      6933
      6928      6936      6939      6940      6929      6928      6930      6931
      6929      6928      6936      6937      6929      6928      6936      6938
      6929      6928      6936      6939      6930      6928      6936      6937
      6930      6928      6936      6938      6930      6928      6936      6939
      6930      6931      6933      6934      6930      6931      6933      6935
      6930      6931      6933      6945      6931      6930      6928      6936
      6931      6933      6945      6946      6931      6933      6945      6947
      6931      6933      6945      6948      6932      6931      6933      6934
      6932      6931      6933      6935      6932      6931      6933      6945
      6933      6945      6948      6949      6933      6945      6948      6950
      6933      6945      6948      6951      6934      6933      6945      6946
      6934      6933      6945      6947      6934      6933      6945      6948
      6935      6933      6945      6946      6935      6933      6945      6947
      6935      6933      6945      6948      6936      6939      6940      6941
      6936      6939      6940      6942      6937      6936      6939      6940
      6938      6936      6939      6940      6939      6940      6942      6943
      6939      6940      6942      6944      6939      6940      6942      6992
      6940      6942      6992      6993      6940      6942      6992      6994
      6940      6942      6992      6995      6941      6940      6942      6943
      6941      6940      6942      6944      6941      6940      6942      6992
      6942      6992      6995      6996      6942      6992      6995      6997
      6942      6992      6995      6998      6943      6942      6992      6993
      6943      6942      6992      6994      6943      6942      6992      6995
      6944      6942      6992      6993      6944      6942      6992      6994
      6944      6942      6992      6995      6945      6948      6951      6952
      6945      6948      6951      6953      6945      6948      6951      6954
      6946      6945      6948      6949      6946      6945      6948      6950
      6946      6945      6948      6951      6947      6945      6948      6949
      6947      6945      6948      6950      6947      6945      6948      6951
      6948      6951      6954      6955      6948      6951      6954      6956
      6948      6951      6954      6957      6949      6948      6951      6952
      6949      6948      6951      6953      6949      6948      6951      6954
      6950      6948      6951      6952      6950      6948      6951      6953
      6950      6948      6951      6954      6951      6954      6957      6958
      6951      6954      6957      6959      6951      6954      6957      6960
      6952      6951      6954      6955      6952      6951      6954      6956
      6952      6951      6954      6957      6953      6951      6954      6955
      6953      6951      6954      6956      6953      6951      6954      6957
      6954      6957      6960      6961      6954      6957      6960      6962
      6954      6957      6960      6963      6955      6954      6957      6958
      6955      6954      6957      6959      6955      6954      6957      6960
      6956      6954      6957      6958      6956      6954      6957      6959
      6956      6954      6957      6960      6957      6960      6963      6964
      6957      6960      6963      6965      6958      6957      6960      6961
      6958      6957      6960      6962      6958      6957      6960      6963
      6959      6957      6960      6961      6959      6957      6960      6962
      6959      6957      6960      6963      6960      6963      6965      6966
      6960      6963      6965      6967      6961      6960      6963      6964
      6961      6960      6963      6965      6962      6960      6963      6964
      6962      6960      6963      6965      6963      6965      6967      6968
      6963      6965      6967      6969      6963      6965      6967      6970
      6964      6963      6965      6966      6964      6963      6965      6967
      6965      6967      6970      6971      6965      6967      6970      6972
      6965      6967      6970      6973      6966      6965      6967      6968
      6966      6965      6967      6969      6966      6965      6967      6970
      6967      6970      6973      6974      6967      6970      6973      6975
      6967      6970      6973      6976      6968      6967      6970      6971
      6968      6967      6970      6972      6968      6967      6970      6973
      6969      6967      6970      6971      6969      6967      6970      6972
      6969      6967      6970      6973      6970      6973      6976      6977
      6970      6973      6976      6978      6970      6973      6976      6979
      6971      6970      6973      6974      6971      6970      6973      6975
      6971      6970      6973      6976      6972      6970      6973      6974
      6972      6970      6973      6975      6972      6970      6973      6976
      6973      6976      6979      6980      6973      6976      6979      6981
      6973      6976      6979      6982      6974      6973      6976      6977
      6974      6973      6976      6978      6974      6973      6976      6979
      6975      6973      6976      6977      6975      6973      6976      6978
      6975      6973      6976      6979      6976      6979      6982      6983
      6976      6979      6982      6984      6976      6979      6982      6985
      6977      6976      6979      6980      6977      6976      6979      6981
      6977      6976      6979      6982      6978      6976      6979      6980
      6978      6976      6979      6981      6978      6976      6979      6982
      6979      6982      6985      6986      6979      6982      6985      6987
      6979      6982      6985      6988      6980      6979      6982      6983
      6980      6979      6982      6984      6980      6979      6982      6985
      6981      6979      6982      6983      6981      6979      6982      6984
      6981      6979      6982      6985      6982      6985      6988      6989
      6982      6985      6988      6990      6982      6985      6988      6991
      6983      6982      6985      6986      6983      6982      6985      6987
      6983      6982      6985      6988      6984      6982      6985      6986
      6984      6982      6985      6987      6984      6982      6985      6988
      6986      6985      6988      6989      6986      6985      6988      6990
      6986      6985      6988      6991      6987      6985      6988      6989
      6987      6985      6988      6990      6987      6985      6988      6991
      6992      6995      6998      6999      6992      6995      6998      7000
      6992      6995      6998      7001      6993      6992      6995      6996
      6993      6992      6995      6997      6993      6992      6995      6998
      6994      6992      6995      6996      6994      6992      6995      6997
      6994      6992      6995      6998      6995      6998      7001      7002
      6995      6998      7001      7003      6995      6998      7001      7004
      6996      6995      6998      6999      6996      6995      6998      7000
      6996      6995      6998      7001      6997      6995      6998      6999
      6997      6995      6998      7000      6997      6995      6998      7001
      6998      7001      7004      7005      6998      7001      7004      7006
      6998      7001      7004      7007      6999      6998      7001      7002
      6999      6998      7001      7003      6999      6998      7001      7004
      7000      6998      7001      7002      7000      6998      7001      7003
      7000      6998      7001      7004      7001      7004      7007      7008
      7001      7004      7007      7009      7001      7004      7007      7010
      7002      7001      7004      7005      7002      7001      7004      7006
      7002      7001      7004      7007      7003      7001      7004      7005
      7003      7001      7004      7006      7003      7001      7004      7007
      7004      7007      7010      7011      7004      7007      7010      7012
      7005      7004      7007      7008      7005      7004      7007      7009
      7005      7004      7007      7010      7006      7004      7007      7008
      7006      7004      7007      7009      7006      7004      7007      7010
      7007      7010      7012      7013      7007      7010      7012      7014
      7008      7007      7010      7011      7008      7007      7010      7012
      7009      7007      7010      7011      7009      7007      7010      7012
      7010      7012      7014      7015      7010      7012      7014      7016
      7010      7012      7014      7017      7011      7010      7012      7013
      7011      7010      7012      7014      7012      7014      7017      7018
      7012      7014      7017      7019      7012      7014      7017      7020
      7013      7012      7014      7015      7013      7012      7014      7016
      7013      7012      7014      7017      7014      7017      7020      7021
      7014      7017      7020      7022      7014      7017      7020      7023
      7015      7014      7017      7018      7015      7014      7017      7019
      7015      7014      7017      7020      7016      7014      7017      7018
      7016      7014      7017      7019      7016      7014      7017      7020
      7017      7020      7023      7024      7017      7020      7023      7025
      7017      7020      7023      7026      7018      7017      7020      7021
      7018      7017      7020      7022      7018      7017      7020      7023
      7019      7017      7020      7021      7019      7017      7020      7022
      7019      7017      7020      7023      7020      7023      7026      7027
      7020      7023      7026      7028      7020      7023      7026      7029
      7021      7020      7023      7024      7021      7020      7023      7025
      7021      7020      7023      7026      7022      7020      7023      7024
      7022      7020      7023      7025      7022      7020      7023      7026
      7023      7026      7029      7030      7023      7026      7029      7031
      7023      7026      7029      7032      7024      7023      7026      7027
      7024      7023      7026      7028      7024      7023      7026      7029
      7025      7023      7026      7027      7025      7023      7026      7028
      7025      7023      7026      7029      7026      7029      7032      7033
      7026      7029      7032      7034      7026      7029      7032      7035
      7027      7026      7029      7030      7027      7026      7029      7031
      7027      7026      7029      7032      7028      7026      7029      7030
      7028      7026      7029      7031      7028      7026      7029      7032
      7029      7032      7035      7036      7029      7032      7035      7037
      7029      7032      7035      7038      7030      7029      7032      7033
      7030      7029      7032      7034      7030      7029      7032      7035
      7031      7029      7032      7033      7031      7029      7032      7034
      7031      7029      7032      7035      7033      7032      7035      7036
      7033      7032      7035      7037      7033      7032      7035      7038
      7034      7032      7035      7036      7034      7032      7035      7037
      7034      7032      7035      7038      7039      7040      7055      7056
      7039      7040      7055      7057      7039      7040      7055      7061
      7040      7039      7043      7044      7040      7039      7043      7045
      7040      7039      7043      7046      7040      7039      7047      7048
      7040      7039      7047      7049      7040      7039      7047      7050
      7040      7039      7051      7052      7040      7039      7051      7053
      7040      7039      7051      7054      7040      7055      7061      7058
      7041      7040      7039      7043      7041      7040      7039      7047
      7041      7040      7039      7051      7041      7040      7055      7056
      7041      7040      7055      7057      7041      7040      7055      7061
      7042      7040      7039      7043      7042      7040      7039      7047
      7042      7040      7039      7051      7042      7040      7055      7056
      7042      7040      7055      7057      7042      7040      7055      7061
      7043      7039      7040      7055      7043      7039      7047      7048
      7043      7039      7047      7049      7043      7039      7047      7050
      7043      7039      7051      7052      7043      7039      7051      7053
      7043      7039      7051      7054      7044      7043      7039      7047
      7044      7043      7039      7051      7045      7043      7039      7047
      7045      7043      7039      7051      7046      7043      7039      7047
      7046      7043      7039      7051      7047      7039      7040      7055
      7047      7039      7051      7052      7047      7039      7051      7053
      7047      7039      7051      7054      7048      7047      7039      7051
      7049      7047      7039      7051      7050      7047      7039      7051
      7051      7039      7040      7055      7055      7061      7058      7059
      7055      7061      7058      7060      7055      7061      7058      7062
      7056      7055      7061      7058      7057      7055      7061      7058
      7058      7062      7063      7064      7058      7062      7063      7065
      7058      7062      7063      7066      7059      7058      7062      7063
      7060      7058      7062      7063      7061      7058      7062      7063
      7062      7063      7066      7067      7062      7063      7066      7068
      7062      7063      7066      7074      7063      7066      7068      7069
      7063      7066      7074      7075      7063      7066      7074      7076
      7063      7066      7074      7077      7064      7063      7066      7067
      7064      7063      7066      7068      7064      7063      7066      7074
      7065      7063      7066      7067      7065      7063      7066      7068
      7065      7063      7066      7074      7066      7068      7069      7070
      7066      7068      7069      7071      7066      7074      7077      7078
      7067      7066      7068      7069      7067      7066      7074      7075
      7067      7066      7074      7076      7067      7066      7074      7077
      7068      7066      7074      7075      7068      7066      7074      7076
      7068      7066      7074      7077      7068      7069      7071      7072
      7068      7069      7071      7073      7068      7069      7071      7083
      7069      7068      7066      7074      7069      7071      7083      7084
      7069      7071      7083      7085      7069      7071      7083      7086
      7070      7069      7071      7072      7070      7069      7071      7073
      7070      7069      7071      7083      7071      7083      7086      7087
      7071      7083      7086      7088      7071      7083      7086      7089
      7072      7071      7083      7084      7072      7071      7083      7085
      7072      7071      7083      7086      7073      7071      7083      7084
      7073      7071      7083      7085      7073      7071      7083      7086
      7074      7077      7078      7079      7074      7077      7078      7080
      7075      7074      7077      7078      7076      7074      7077      7078
      7077      7078      7080      7081      7077      7078      7080      7082
      7077      7078      7080      7130      7078      7080      7130      7131
      7078      7080      7130      7132      7078      7080      7130      7133
      7079      7078      7080      7081      7079      7078      7080      7082
      7079      7078      7080      7130      7080      7130      7133      7134
      7080      7130      7133      7135      7080      7130      7133      7136
      7081      7080      7130      7131      7081      7080      7130      7132
      7081      7080      7130      7133      7082      7080      7130      7131
      7082      7080      7130      7132      7082      7080      7130      7133
      7083      7086      7089      7090      7083      7086      7089      7091
      7083      7086      7089      7092      7084      7083      7086      7087
      7084      7083      7086      7088      7084      7083      7086      7089
      7085      7083      7086      7087      7085      7083      7086      7088
      7085      7083      7086      7089      7086      7089      7092      7093
      7086      7089      7092      7094      7086      7089      7092      7095
      7087      7086      7089      7090      7087      7086      7089      7091
      7087      7086      7089      7092      7088      7086      7089      7090
      7088      7086      7089      7091      7088      7086      7089      7092
      7089      7092      7095      7096      7089      7092      7095      7097
      7089      7092      7095      7098      7090      7089      7092      7093
      7090      7089      7092      7094      7090      7089      7092      7095
      7091      7089      7092      7093      7091      7089      7092      7094
      7091      7089      7092      7095      7092      7095      7098      7099
      7092      7095      7098      7100      7092      7095      7098      7101
      7093      7092      7095      7096      7093      7092      7095      7097
      7093      7092      7095      7098      7094      7092      7095      7096
      7094      7092      7095      7097      7094      7092      7095      7098
      7095      7098      7101      7102      7095      7098      7101      7103
      7096      7095      7098      7099      7096      7095      7098      7100
      7096      7095      7098      7101      7097      7095      7098      7099
      7097      7095      7098      7100      7097      7095      7098      7101
      7098      7101      7103      7104      7098      7101      7103      7105
      7099      7098      7101      7102      7099      7098      7101      7103
      7100      7098      7101      7102      7100      7098      7101      7103
      7101      7103      7105      7106      7101      7103      7105      7107
      7101      7103      7105      7108      7102      7101      7103      7104
      7102      7101      7103      7105      7103      7105      7108      7109
      7103      7105      7108      7110      7103      7105      7108      7111
      7104      7103      7105      7106      7104      7103      7105      7107
      7104      7103      7105      7108      7105      7108      7111      7112
      7105      7108      7111      7113      7105      7108      7111      7114
      7106      7105      7108      7109      7106      7105      7108      7110
      7106      7105      7108      7111      7107      7105      7108      7109
      7107      7105      7108      7110      7107      7105      7108      7111
      7108      7111      7114      7115      7108      7111      7114      7116
      7108      7111      7114      7117      7109      7108      7111      7112
      7109      7108      7111      7113      7109      7108      7111      7114
      7110      7108      7111      7112      7110      7108      7111      7113
      7110      7108      7111      7114      7111      7114      7117      7118
      7111      7114      7117      7119      7111      7114      7117      7120
      7112      7111      7114      7115      7112      7111      7114      7116
      7112      7111      7114      7117      7113      7111      7114      7115
      7113      7111      7114      7116      7113      7111      7114      7117
      7114      7117      7120      7121      7114      7117      7120      7122
      7114      7117      7120      7123      7115      7114      7117      7118
      7115      7114      7117      7119      7115      7114      7117      7120
      7116      7114      7117      7118      7116      7114      7117      7119
      7116      7114      7117      7120      7117      7120      7123      7124
      7117      7120      7123      7125      7117      7120      7123      7126
      7118      7117      7120      7121      7118      7117      7120      7122
      7118      7117      7120      7123      7119      7117      7120      7121
      7119      7117      7120      7122      7119      7117      7120      7123
      7120      7123      7126      7127      7120      7123      7126      7128
      7120      7123      7126      7129      7121      7120      7123      7124
      7121      7120      7123      7125      7121      7120      7123      7126
      7122      7120      7123      7124      7122      7120      7123      7125
      7122      7120      7123      7126      7124      7123      7126      7127
      7124      7123      7126      7128      7124      7123      7126      7129
      7125      7123      7126      7127      7125      7123      7126      7128
      7125      7123      7126      7129      7130      7133      7136      7137
      7130      7133      7136      7138      7130      7133      7136      7139
      7131      7130      7133      7134      7131      7130      7133      7135
      7131      7130      7133      7136      7132      7130      7133      7134
      7132      7130      7133      7135      7132      7130      7133      7136
      7133      7136      7139      7140      7133      7136      7139      7141
      7133      7136      7139      7142      7134      7133      7136      7137
      7134      7133      7136      7138      7134      7133      7136      7139
      7135      7133      7136      7137      7135      7133      7136      7138
      7135      7133      7136      7139      7136      7139      7142      7143
      7136      7139      7142      7144      7136      7139      7142      7145
      7137      7136      7139      7140      7137      7136      7139      7141
      7137      7136      7139      7142      7138      7136      7139      7140
      7138      7136      7139      7141      7138      7136      7139      7142
      7139      7142      7145      7146      7139      7142      7145      7147
      7139      7142      7145      7148      7140      7139      7142      7143
      7140      7139      7142      7144      7140      7139      7142      7145
      7141      7139      7142      7143      7141      7139      7142      7144
      7141      7139      7142      7145      7142      7145      7148      7149
      7142      7145      7148      7150      7143      7142      7145      7146
      7143      7142      7145      7147      7143      7142      7145      7148
      7144      7142      7145      7146      7144      7142      7145      7147
      7144      7142      7145      7148      7145      7148      7150      7151
      7145      7148      7150      7152      7146      7145      7148      7149
      7146      7145      7148      7150      7147      7145      7148      7149
      7147      7145      7148      7150      7148      7150      7152      7153
      7148      7150      7152      7154      7148      7150      7152      7155
      7149      7148      7150      7151      7149      7148      7150      7152
      7150      7152      7155      7156      7150      7152      7155      7157
      7150      7152      7155      7158      7151      7150      7152      7153
      7151      7150      7152      7154      7151      7150      7152      7155
      7152      7155      7158      7159      7152      7155      7158      7160
      7152      7155      7158      7161      7153      7152      7155      7156
      7153      7152      7155      7157      7153      7152      7155      7158
      7154      7152      7155      7156      7154      7152      7155      7157
      7154      7152      7155      7158      7155      7158      7161      7162
      7155      7158      7161      7163      7155      7158      7161      7164
      7156      7155      7158      7159      7156      7155      7158      7160
      7156      7155      7158      7161      7157      7155      7158      7159
      7157      7155      7158      7160      7157      7155      7158      7161
      7158      7161      7164      7165      7158      7161      7164      7166
      7158      7161      7164      7167      7159      7158      7161      7162
      7159      7158      7161      7163      7159      7158      7161      7164
      7160      7158      7161      7162      7160      7158      7161      7163
      7160      7158      7161      7164      7161      7164      7167      7168
      7161      7164      7167      7169      7161      7164      7167      7170
      7162      7161      7164      7165      7162      7161      7164      7166
      7162      7161      7164      7167      7163      7161      7164      7165
      7163      7161      7164      7166      7163      7161      7164      7167
      7164      7167      7170      7171      7164      7167      7170      7172
      7164      7167      7170      7173      7165      7164      7167      7168
      7165      7164      7167      7169      7165      7164      7167      7170
      7166      7164      7167      7168      7166      7164      7167      7169
      7166      7164      7167      7170      7167      7170      7173      7174
      7167      7170      7173      7175      7167      7170      7173      7176
      7168      7167      7170      7171      7168      7167      7170      7172
      7168      7167      7170      7173      7169      7167      7170      7171
      7169      7167      7170      7172      7169      7167      7170      7173
      7171      7170      7173      7174      7171      7170      7173      7175
      7171      7170      7173      7176      7172      7170      7173      7174
      7172      7170      7173      7175      7172      7170      7173      7176
      7177      7178      7193      7194      7177      7178      7193      7195
      7177      7178      7193      7199      7178      7177      7181      7182
      7178      7177      7181      7183      7178      7177      7181      7184
      7178      7177      7185      7186      7178      7177      7185      7187
      7178      7177      7185      7188      7178      7177      7189      7190
      7178      7177      7189      7191      7178      7177      7189      7192
      7178      7193      7199      7196      7179      7178      7177      7181
      7179      7178      7177      7185      7179      7178      7177      7189
      7179      7178      7193      7194      7179      7178      7193      7195
      7179      7178      7193      7199      7180      7178      7177      7181
      7180      7178      7177      7185      7180      7178      7177      7189
      7180      7178      7193      7194      7180      7178      7193      7195
      7180      7178      7193      7199      7181      7177      7178      7193
      7181      7177      7185      7186      7181      7177      7185      7187
      7181      7177      7185      7188      7181      7177      7189      7190
      7181      7177      7189      7191      7181      7177      7189      7192
      7182      7181      7177      7185      7182      7181      7177      7189
      7183      7181      7177      7185      7183      7181      7177      7189
      7184      7181      7177      7185      7184      7181      7177      7189
      7185      7177      7178      7193      7185      7177      7189      7190
      7185      7177      7189      7191      7185      7177      7189      7192
      7186      7185      7177      7189      7187      7185      7177      7189
      7188      7185      7177      7189      7189      7177      7178      7193
      7193      7199      7196      7197      7193      7199      7196      7198
      7193      7199      7196      7200      7194      7193      7199      7196
      7195      7193      7199      7196      7196      7200      7201      7202
      7196      7200      7201      7203      7196      7200      7201      7204
      7197      7196      7200      7201      7198      7196      7200      7201
      7199      7196      7200      7201      7200      7201      7204      7205
      7200      7201      7204      7206      7200      7201      7204      7212
      7201      7204      7206      7207      7201      7204      7212      7213
      7201      7204      7212      7214      7201      7204      7212      7215
      7202      7201      7204      7205      7202      7201      7204      7206
      7202      7201      7204      7212      7203      7201      7204      7205
      7203      7201      7204      7206      7203      7201      7204      7212
      7204      7206      7207      7208      7204      7206      7207      7209
      7204      7212      7215      7216      7205      7204      7206      7207
      7205      7204      7212      7213      7205      7204      7212      7214
      7205      7204      7212      7215      7206      7204      7212      7213
      7206      7204      7212      7214      7206      7204      7212      7215
      7206      7207      7209      7210      7206      7207      7209      7211
      7206      7207      7209      7221      7207      7206      7204      7212
      7207      7209      7221      7222      7207      7209      7221      7223
      7207      7209      7221      7224      7208      7207      7209      7210
      7208      7207      7209      7211      7208      7207      7209      7221
      7209      7221      7224      7225      7209      7221      7224      7226
      7209      7221      7224      7227      7210      7209      7221      7222
      7210      7209      7221      7223      7210      7209      7221      7224
      7211      7209      7221      7222      7211      7209      7221      7223
      7211      7209      7221      7224      7212      7215      7216      7217
      7212      7215      7216      7218      7213      7212      7215      7216
      7214      7212      7215      7216      7215      7216      7218      7219
      7215      7216      7218      7220      7215      7216      7218      7268
      7216      7218      7268      7269      7216      7218      7268      7270
      7216      7218      7268      7271      7217      7216      7218      7219
      7217      7216      7218      7220      7217      7216      7218      7268
      7218      7268      7271      7272      7218      7268      7271      7273
      7218      7268      7271      7274      7219      7218      7268      7269
      7219      7218      7268      7270      7219      7218      7268      7271
      7220      7218      7268      7269      7220      7218      7268      7270
      7220      7218      7268      7271      7221      7224      7227      7228
      7221      7224      7227      7229      7221      7224      7227      7230
      7222      7221      7224      7225      7222      7221      7224      7226
      7222      7221      7224      7227      7223      7221      7224      7225
      7223      7221      7224      7226      7223      7221      7224      7227
      7224      7227      7230      7231      7224      7227      7230      7232
      7224      7227      7230      7233      7225      7224      7227      7228
      7225      7224      7227      7229      7225      7224      7227      7230
      7226      7224      7227      7228      7226      7224      7227      7229
      7226      7224      7227      7230      7227      7230      7233      7234
      7227      7230      7233      7235      7227      7230      7233      7236
      7228      7227      7230      7231      7228      7227      7230      7232
      7228      7227      7230      7233      7229      7227      7230      7231
      7229      7227      7230      7232      7229      7227      7230      7233
      7230      7233      7236      7237      7230      7233      7236      7238
      7230      7233      7236      7239      7231      7230      7233      7234
      7231      7230      7233      7235      7231      7230      7233      7236
      7232      7230      7233      7234      7232      7230      7233      7235
      7232      7230      7233      7236      7233      7236      7239      7240
      7233      7236      7239      7241      7234      7233      7236      7237
      7234      7233      7236      7238      7234      7233      7236      7239
      7235      7233      7236      7237      7235      7233      7236      7238
      7235      7233      7236      7239      7236      7239      7241      7242
      7236      7239      7241      7243      7237      7236      7239      7240
      7237      7236      7239      7241      7238      7236      7239      7240
      7238      7236      7239      7241      7239      7241      7243      7244
      7239      7241      7243      7245      7239      7241      7243      7246
      7240      7239      7241      7242      7240      7239      7241      7243
      7241      7243      7246      7247      7241      7243      7246      7248
      7241      7243      7246      7249      7242      7241      7243      7244
      7242      7241      7243      7245      7242      7241      7243      7246
      7243      7246      7249      7250      7243      7246      7249      7251
      7243      7246      7249      7252      7244      7243      7246      7247
      7244      7243      7246      7248      7244      7243      7246      7249
      7245      7243      7246      7247      7245      7243      7246      7248
      7245      7243      7246      7249      7246      7249      7252      7253
      7246      7249      7252      7254      7246      7249      7252      7255
      7247      7246      7249      7250      7247      7246      7249      7251
      7247      7246      7249      7252      7248      7246      7249      7250
      7248      7246      7249      7251      7248      7246      7249      7252
      7249      7252      7255      7256      7249      7252      7255      7257
      7249      7252      7255      7258      7250      7249      7252      7253
      7250      7249      7252      7254      7250      7249      7252      7255
      7251      7249      7252      7253      7251      7249      7252      7254
      7251      7249      7252      7255      7252      7255      7258      7259
      7252      7255      7258      7260      7252      7255      7258      7261
      7253      7252      7255      7256      7253      7252      7255      7257
      7253      7252      7255      7258      7254      7252      7255      7256
      7254      7252      7255      7257      7254      7252      7255      7258
      7255      7258      7261      7262      7255      7258      7261      7263
      7255      7258      7261      7264      7256      7255      7258      7259
      7256      7255      7258      7260      7256      7255      7258      7261
      7257      7255      7258      7259      7257      7255      7258      7260
      7257      7255      7258      7261      7258      7261      7264      7265
      7258      7261      7264      7266      7258      7261      7264      7267
      7259      7258      7261      7262      7259      7258      7261      7263
      7259      7258      7261      7264      7260      7258      7261      7262
      7260      7258      7261      7263      7260      7258      7261      7264
      7262      7261      7264      7265      7262      7261      7264      7266
      7262      7261      7264      7267      7263      7261      7264      7265
      7263      7261      7264      7266      7263      7261      7264      7267
      7268      7271      7274      7275      7268      7271      7274      7276
      7268      7271      7274      7277      7269      7268      7271      7272
      7269      7268      7271      7273      7269      7268      7271      7274
      7270      7268      7271      7272      7270      7268      7271      7273
      7270      7268      7271      7274      7271      7274      7277      7278
      7271      7274      7277      7279      7271      7274      7277      7280
      7272      7271      7274      7275      7272      7271      7274      7276
      7272      7271      7274      7277      7273      7271      7274      7275
      7273      7271      7274      7276      7273      7271      7274      7277
      7274      7277      7280      7281      7274      7277      7280      7282
      7274      7277      7280      7283      7275      7274      7277      7278
      7275      7274      7277      7279      7275      7274      7277      7280
      7276      7274      7277      7278      7276      7274      7277      7279
      7276      7274      7277      7280      7277      7280      7283      7284
      7277      7280      7283      7285      7277      7280      7283      7286
      7278      7277      7280      7281      7278      7277      7280      7282
      7278      7277      7280      7283      7279      7277      7280      7281
      7279      7277      7280      7282      7279      7277      7280      7283
      7280      7283      7286      7287      7280      7283      7286      7288
      7281      7280      7283      7284      7281      7280      7283      7285
      7281      7280      7283      7286      7282      7280      7283      7284
      7282      7280      7283      7285      7282      7280      7283      7286
      7283      7286      7288      7289      7283      7286      7288      7290
      7284      7283      7286      7287      7284      7283      7286      7288
      7285      7283      7286      7287      7285      7283      7286      7288
      7286      7288      7290      7291      7286      7288      7290      7292
      7286      7288      7290      7293      7287      7286      7288      7289
      7287      7286      7288      7290      7288      7290      7293      7294
      7288      7290      7293      7295      7288      7290      7293      7296
      7289      7288      7290      7291      7289      7288      7290      7292
      7289      7288      7290      7293      7290      7293      7296      7297
      7290      7293      7296      7298      7290      7293      7296      7299
      7291      7290      7293      7294      7291      7290      7293      7295
      7291      7290      7293      7296      7292      7290      7293      7294
      7292      7290      7293      7295      7292      7290      7293      7296
      7293      7296      7299      7300      7293      7296      7299      7301
      7293      7296      7299      7302      7294      7293      7296      7297
      7294      7293      7296      7298      7294      7293      7296      7299
      7295      7293      7296      7297      7295      7293      7296      7298
      7295      7293      7296      7299      7296      7299      7302      7303
      7296      7299      7302      7304      7296      7299      7302      7305
      7297      7296      7299      7300      7297      7296      7299      7301
      7297      7296      7299      7302      7298      7296      7299      7300
      7298      7296      7299      7301      7298      7296      7299      7302
      7299      7302      7305      7306      7299      7302      7305      7307
      7299      7302      7305      7308      7300      7299      7302      7303
      7300      7299      7302      7304      7300      7299      7302      7305
      7301      7299      7302      7303      7301      7299      7302      7304
      7301      7299      7302      7305      7302      7305      7308      7309
      7302      7305      7308      7310      7302      7305      7308      7311
      7303      7302      7305      7306      7303      7302      7305      7307
      7303      7302      7305      7308      7304      7302      7305      7306
      7304      7302      7305      7307      7304      7302      7305      7308
      7305      7308      7311      7312      7305      7308      7311      7313
      7305      7308      7311      7314      7306      7305      7308      7309
      7306      7305      7308      7310      7306      7305      7308      7311
      7307      7305      7308      7309      7307      7305      7308      7310
      7307      7305      7308      7311      7309      7308      7311      7312
      7309      7308      7311      7313      7309      7308      7311      7314
      7310      7308      7311      7312      7310      7308      7311      7313
      7310      7308      7311      7314      7315      7316      7331      7332
      7315      7316      7331      7333      7315      7316      7331      7337
      7316      7315      7319      7320      7316      7315      7319      7321
      7316      7315      7319      7322      7316      7315      7323      7324
      7316      7315      7323      7325      7316      7315      7323      7326
      7316      7315      7327      7328      7316      7315      7327      7329
      7316      7315      7327      7330      7316      7331      7337      7334
      7317      7316      7315      7319      7317      7316      7315      7323
      7317      7316      7315      7327      7317      7316      7331      7332
      7317      7316      7331      7333      7317      7316      7331      7337
      7318      7316      7315      7319      7318      7316      7315      7323
      7318      7316      7315      7327      7318      7316      7331      7332
      7318      7316      7331      7333      7318      7316      7331      7337
      7319      7315      7316      7331      7319      7315      7323      7324
      7319      7315      7323      7325      7319      7315      7323      7326
      7319      7315      7327      7328      7319      7315      7327      7329
      7319      7315      7327      7330      7320      7319      7315      7323
      7320      7319      7315      7327      7321      7319      7315      7323
      7321      7319      7315      7327      7322      7319      7315      7323
      7322      7319      7315      7327      7323      7315      7316      7331
      7323      7315      7327      7328      7323      7315      7327      7329
      7323      7315      7327      7330      7324      7323      7315      7327
      7325      7323      7315      7327      7326      7323      7315      7327
      7327      7315      7316      7331      7331      7337      7334      7335
      7331      7337      7334      7336      7331      7337      7334      7338
      7332      7331      7337      7334      7333      7331      7337      7334
      7334      7338      7339      7340      7334      7338      7339      7341
      7334      7338      7339      7342      7335      7334      7338      7339
      7336      7334      7338      7339      7337      7334      7338      7339
      7338      7339      7342      7343      7338      7339      7342      7344
      7338      7339      7342      7350      7339      7342      7344      7345
      7339      7342      7350      7351      7339      7342      7350      7352
      7339      7342      7350      7353      7340      7339      7342      7343
      7340      7339      7342      7344      7340      7339      7342      7350
      7341      7339      7342      7343      7341      7339      7342      7344
      7341      7339      7342      7350      7342      7344      7345      7346
      7342      7344      7345      7347      7342      7350      7353      7354
      7343      7342      7344      7345      7343      7342      7350      7351
      7343      7342      7350      7352      7343      7342      7350      7353
      7344      7342      7350      7351      7344      7342      7350      7352
      7344      7342      7350      7353      7344      7345      7347      7348
      7344      7345      7347      7349      7344      7345      7347      7359
      7345      7344      7342      7350      7345      7347      7359      7360
      7345      7347      7359      7361      7345      7347      7359      7362
      7346      7345      7347      7348      7346      7345      7347      7349
      7346      7345      7347      7359      7347      7359      7362      7363
      7347      7359      7362      7364      7347      7359      7362      7365
      7348      7347      7359      7360      7348      7347      7359      7361
      7348      7347      7359      7362      7349      7347      7359      7360
      7349      7347      7359      7361      7349      7347      7359      7362
      7350      7353      7354      7355      7350      7353      7354      7356
      7351      7350      7353      7354      7352      7350      7353      7354
      7353      7354      7356      7357      7353      7354      7356      7358
      7353      7354      7356      7406      7354      7356      7406      7407
      7354      7356      7406      7408      7354      7356      7406      7409
      7355      7354      7356      7357      7355      7354      7356      7358
      7355      7354      7356      7406      7356      7406      7409      7410
      7356      7406      7409      7411      7356      7406      7409      7412
      7357      7356      7406      7407      7357      7356      7406      7408
      7357      7356      7406      7409      7358      7356      7406      7407
      7358      7356      7406      7408      7358      7356      7406      7409
      7359      7362      7365      7366      7359      7362      7365      7367
      7359      7362      7365      7368      7360      7359      7362      7363
      7360      7359      7362      7364      7360      7359      7362      7365
      7361      7359      7362      7363      7361      7359      7362      7364
      7361      7359      7362      7365      7362      7365      7368      7369
      7362      7365      7368      7370      7362      7365      7368      7371
      7363      7362      7365      7366      7363      7362      7365      7367
      7363      7362      7365      7368      7364      7362      7365      7366
      7364      7362      7365      7367      7364      7362      7365      7368
      7365      7368      7371      7372      7365      7368      7371      7373
      7365      7368      7371      7374      7366      7365      7368      7369
      7366      7365      7368      7370      7366      7365      7368      7371
      7367      7365      7368      7369      7367      7365      7368      7370
      7367      7365      7368      7371      7368      7371      7374      7375
      7368      7371      7374      7376      7368      7371      7374      7377
      7369      7368      7371      7372      7369      7368      7371      7373
      7369      7368      7371      7374      7370      7368      7371      7372
      7370      7368      7371      7373      7370      7368      7371      7374
      7371      7374      7377      7378      7371      7374      7377      7379
      7372      7371      7374      7375      7372      7371      7374      7376
      7372      7371      7374      7377      7373      7371      7374      7375
      7373      7371      7374      7376      7373      7371      7374      7377
      7374      7377      7379      7380      7374      7377      7379      7381
      7375      7374      7377      7378      7375      7374      7377      7379
      7376      7374      7377      7378      7376      7374      7377      7379
      7377      7379      7381      7382      7377      7379      7381      7383
      7377      7379      7381      7384      7378      7377      7379      7380
      7378      7377      7379      7381      7379      7381      7384      7385
      7379      7381      7384      7386      7379      7381      7384      7387
      7380      7379      7381      7382      7380      7379      7381      7383
      7380      7379      7381      7384      7381      7384      7387      7388
      7381      7384      7387      7389      7381      7384      7387      7390
      7382      7381      7384      7385      7382      7381      7384      7386
      7382      7381      7384      7387      7383      7381      7384      7385
      7383      7381      7384      7386      7383      7381      7384      7387
      7384      7387      7390      7391      7384      7387      7390      7392
      7384      7387      7390      7393      7385      7384      7387      7388
      7385      7384      7387      7389      7385      7384      7387      7390
      7386      7384      7387      7388      7386      7384      7387      7389
      7386      7384      7387      7390      7387      7390      7393      7394
      7387      7390      7393      7395      7387      7390      7393      7396
      7388      7387      7390      7391      7388      7387      7390      7392
      7388      7387      7390      7393      7389      7387      7390      7391
      7389      7387      7390      7392      7389      7387      7390      7393
      7390      7393      7396      7397      7390      7393      7396      7398
      7390      7393      7396      7399      7391      7390      7393      7394
      7391      7390      7393      7395      7391      7390      7393      7396
      7392      7390      7393      7394      7392      7390      7393      7395
      7392      7390      7393      7396      7393      7396      7399      7400
      7393      7396      7399      7401      7393      7396      7399      7402
      7394      7393      7396      7397      7394      7393      7396      7398
      7394      7393      7396      7399      7395      7393      7396      7397
      7395      7393      7396      7398      7395      7393      7396      7399
      7396      7399      7402      7403      7396      7399      7402      7404
      7396      7399      7402      7405      7397      7396      7399      7400
      7397      7396      7399      7401      7397      7396      7399      7402
      7398      7396      7399      7400      7398      7396      7399      7401
      7398      7396      7399      7402      7400      7399      7402      7403
      7400      7399      7402      7404      7400      7399      7402      7405
      7401      7399      7402      7403      7401      7399      7402      7404
      7401      7399      7402      7405      7406      7409      7412      7413
      7406      7409      7412      7414      7406      7409      7412      7415
      7407      7406      7409      7410      7407      7406      7409      7411
      7407      7406      7409      7412      7408      7406      7409      7410
      7408      7406      7409      7411      7408      7406      7409      7412
      7409      7412      7415      7416      7409      7412      7415      7417
      7409      7412      7415      7418      7410      7409      7412      7413
      7410      7409      7412      7414      7410      7409      7412      7415
      7411      7409      7412      7413      7411      7409      7412      7414
      7411      7409      7412      7415      7412      7415      7418      7419
      7412      7415      7418      7420      7412      7415      7418      7421
      7413      7412      7415      7416      7413      7412      7415      7417
      7413      7412      7415      7418      7414      7412      7415      7416
      7414      7412      7415      7417      7414      7412      7415      7418
      7415      7418      7421      7422      7415      7418      7421      7423
      7415      7418      7421      7424      7416      7415      7418      7419
      7416      7415      7418      7420      7416      7415      7418      7421
      7417      7415      7418      7419      7417      7415      7418      7420
      7417      7415      7418      7421      7418      7421      7424      7425
      7418      7421      7424      7426      7419      7418      7421      7422
      7419      7418      7421      7423      7419      7418      7421      7424
      7420      7418      7421      7422      7420      7418      7421      7423
      7420      7418      7421      7424      7421      7424      7426      7427
      7421      7424      7426      7428      7422      7421      7424      7425
      7422      7421      7424      7426      7423      7421      7424      7425
      7423      7421      7424      7426      7424      7426      7428      7429
      7424      7426      7428      7430      7424      7426      7428      7431
      7425      7424      7426      7427      7425      7424      7426      7428
      7426      7428      7431      7432      7426      7428      7431      7433
      7426      7428      7431      7434      7427      7426      7428      7429
      7427      7426      7428      7430      7427      7426      7428      7431
      7428      7431      7434      7435      7428      7431      7434      7436
      7428      7431      7434      7437      7429      7428      7431      7432
      7429      7428      7431      7433      7429      7428      7431      7434
      7430      7428      7431      7432      7430      7428      7431      7433
      7430      7428      7431      7434      7431      7434      7437      7438
      7431      7434      7437      7439      7431      7434      7437      7440
      7432      7431      7434      7435      7432      7431      7434      7436
      7432      7431      7434      7437      7433      7431      7434      7435
      7433      7431      7434      7436      7433      7431      7434      7437
      7434      7437      7440      7441      7434      7437      7440      7442
      7434      7437      7440      7443      7435      7434      7437      7438
      7435      7434      7437      7439      7435      7434      7437      7440
      7436      7434      7437      7438      7436      7434      7437      7439
      7436      7434      7437      7440      7437      7440      7443      7444
      7437      7440      7443      7445      7437      7440      7443      7446
      7438      7437      7440      7441      7438      7437      7440      7442
      7438      7437      7440      7443      7439      7437      7440      7441
      7439      7437      7440      7442      7439      7437      7440      7443
      7440      7443      7446      7447      7440      7443      7446      7448
      7440      7443      7446      7449      7441      7440      7443      7444
      7441      7440      7443      7445      7441      7440      7443      7446
      7442      7440      7443      7444      7442      7440      7443      7445
      7442      7440      7443      7446      7443      7446      7449      7450
      7443      7446      7449      7451      7443      7446      7449      7452
      7444      7443      7446      7447      7444      7443      7446      7448
      7444      7443      7446      7449      7445      7443      7446      7447
      7445      7443      7446      7448      7445      7443      7446      7449
      7447      7446      7449      7450      7447      7446      7449      7451
      7447      7446      7449      7452      7448      7446      7449      7450
      7448      7446      7449      7451      7448      7446      7449      7452
      7453      7454      7469      7470      7453      7454      7469      7471
      7453      7454      7469      7475      7454      7453      7457      7458
      7454      7453      7457      7459      7454      7453      7457      7460
      7454      7453      7461      7462      7454      7453      7461      7463
      7454      7453      7461      7464      7454      7453      7465      7466
      7454      7453      7465      7467      7454      7453      7465      7468
      7454      7469      7475      7472      7455      7454      7453      7457
      7455      7454      7453      7461      7455      7454      7453      7465
      7455      7454      7469      7470      7455      7454      7469      7471
      7455      7454      7469      7475      7456      7454      7453      7457
      7456      7454      7453      7461      7456      7454      7453      7465
      7456      7454      7469      7470      7456      7454      7469      7471
      7456      7454      7469      7475      7457      7453      7454      7469
      7457      7453      7461      7462      7457      7453      7461      7463
      7457      7453      7461      7464      7457      7453      7465      7466
      7457      7453      7465      7467      7457      7453      7465      7468
      7458      7457      7453      7461      7458      7457      7453      7465
      7459      7457      7453      7461      7459      7457      7453      7465
      7460      7457      7453      7461      7460      7457      7453      7465
      7461      7453      7454      7469      7461      7453      7465      7466
      7461      7453      7465      7467      7461      7453      7465      7468
      7462      7461      7453      7465      7463      7461      7453      7465
      7464      7461      7453      7465      7465      7453      7454      7469
      7469      7475      7472      7473      7469      7475      7472      7474
      7469      7475      7472      7476      7470      7469      7475      7472
      7471      7469      7475      7472      7472      7476      7477      7478
      7472      7476      7477      7479      7472      7476      7477      7480
      7473      7472      7476      7477      7474      7472      7476      7477
      7475      7472      7476      7477      7476      7477      7480      7481
      7476      7477      7480      7482      7476      7477      7480      7488
      7477      7480      7482      7483      7477      7480      7488      7489
      7477      7480      7488      7490      7477      7480      7488      7491
      7478      7477      7480      7481      7478      7477      7480      7482
      7478      7477      7480      7488      7479      7477      7480      7481
      7479      7477      7480      7482      7479      7477      7480      7488
      7480      7482      7483      7484      7480      7482      7483      7485
      7480      7488      7491      7492      7481      7480      7482      7483
      7481      7480      7488      7489      7481      7480      7488      7490
      7481      7480      7488      7491      7482      7480      7488      7489
      7482      7480      7488      7490      7482      7480      7488      7491
      7482      7483      7485      7486      7482      7483      7485      7487
      7482      7483      7485      7497      7483      7482      7480      7488
      7483      7485      7497      7498      7483      7485      7497      7499
      7483      7485      7497      7500      7484      7483      7485      7486
      7484      7483      7485      7487      7484      7483      7485      7497
      7485      7497      7500      7501      7485      7497      7500      7502
      7485      7497      7500      7503      7486      7485      7497      7498
      7486      7485      7497      7499      7486      7485      7497      7500
      7487      7485      7497      7498      7487      7485      7497      7499
      7487      7485      7497      7500      7488      7491      7492      7493
      7488      7491      7492      7494      7489      7488      7491      7492
      7490      7488      7491      7492      7491      7492      7494      7495
      7491      7492      7494      7496      7491      7492      7494      7544
      7492      7494      7544      7545      7492      7494      7544      7546
      7492      7494      7544      7547      7493      7492      7494      7495
      7493      7492      7494      7496      7493      7492      7494      7544
      7494      7544      7547      7548      7494      7544      7547      7549
      7494      7544      7547      7550      7495      7494      7544      7545
      7495      7494      7544      7546      7495      7494      7544      7547
      7496      7494      7544      7545      7496      7494      7544      7546
      7496      7494      7544      7547      7497      7500      7503      7504
      7497      7500      7503      7505      7497      7500      7503      7506
      7498      7497      7500      7501      7498      7497      7500      7502
      7498      7497      7500      7503      7499      7497      7500      7501
      7499      7497      7500      7502      7499      7497      7500      7503
      7500      7503      7506      7507      7500      7503      7506      7508
      7500      7503      7506      7509      7501      7500      7503      7504
      7501      7500      7503      7505      7501      7500      7503      7506
      7502      7500      7503      7504      7502      7500      7503      7505
      7502      7500      7503      7506      7503      7506      7509      7510
      7503      7506      7509      7511      7503      7506      7509      7512
      7504      7503      7506      7507      7504      7503      7506      7508
      7504      7503      7506      7509      7505      7503      7506      7507
      7505      7503      7506      7508      7505      7503      7506      7509
      7506      7509      7512      7513      7506      7509      7512      7514
      7506      7509      7512      7515      7507      7506      7509      7510
      7507      7506      7509      7511      7507      7506      7509      7512
      7508      7506      7509      7510      7508      7506      7509      7511
      7508      7506      7509      7512      7509      7512      7515      7516
      7509      7512      7515      7517      7510      7509      7512      7513
      7510      7509      7512      7514      7510      7509      7512      7515
      7511      7509      7512      7513      7511      7509      7512      7514
      7511      7509      7512      7515      7512      7515      7517      7518
      7512      7515      7517      7519      7513      7512      7515      7516
      7513      7512      7515      7517      7514      7512      7515      7516
      7514      7512      7515      7517      7515      7517      7519      7520
      7515      7517      7519      7521      7515      7517      7519      7522
      7516      7515      7517      7518      7516      7515      7517      7519
      7517      7519      7522      7523      7517      7519      7522      7524
      7517      7519      7522      7525      7518      7517      7519      7520
      7518      7517      7519      7521      7518      7517      7519      7522
      7519      7522      7525      7526      7519      7522      7525      7527
      7519      7522      7525      7528      7520      7519      7522      7523
      7520      7519      7522      7524      7520      7519      7522      7525
      7521      7519      7522      7523      7521      7519      7522      7524
      7521      7519      7522      7525      7522      7525      7528      7529
      7522      7525      7528      7530      7522      7525      7528      7531
      7523      7522      7525      7526      7523      7522      7525      7527
      7523      7522      7525      7528      7524      7522      7525      7526
      7524      7522      7525      7527      7524      7522      7525      7528
      7525      7528      7531      7532      7525      7528      7531      7533
      7525      7528      7531      7534      7526      7525      7528      7529
      7526      7525      7528      7530      7526      7525      7528      7531
      7527      7525      7528      7529      7527      7525      7528      7530
      7527      7525      7528      7531      7528      7531      7534      7535
      7528      7531      7534      7536      7528      7531      7534      7537
      7529      7528      7531      7532      7529      7528      7531      7533
      7529      7528      7531      7534      7530      7528      7531      7532
      7530      7528      7531      7533      7530      7528      7531      7534
      7531      7534      7537      7538      7531      7534      7537      7539
      7531      7534      7537      7540      7532      7531      7534      7535
      7532      7531      7534      7536      7532      7531      7534      7537
      7533      7531      7534      7535      7533      7531      7534      7536
      7533      7531      7534      7537      7534      7537      7540      7541
      7534      7537      7540      7542      7534      7537      7540      7543
      7535      7534      7537      7538      7535      7534      7537      7539
      7535      7534      7537      7540      7536      7534      7537      7538
      7536      7534      7537      7539      7536      7534      7537      7540
      7538      7537      7540      7541      7538      7537      7540      7542
      7538      7537      7540      7543      7539      7537      7540      7541
      7539      7537      7540      7542      7539      7537      7540      7543
      7544      7547      7550      7551      7544      7547      7550      7552
      7544      7547      7550      7553      7545      7544      7547      7548
      7545      7544      7547      7549      7545      7544      7547      7550
      7546      7544      7547      7548      7546      7544      7547      7549
      7546      7544      7547      7550      7547      7550      7553      7554
      7547      7550      7553      7555      7547      7550      7553      7556
      7548      7547      7550      7551      7548      7547      7550      7552
      7548      7547      7550      7553      7549      7547      7550      7551
      7549      7547      7550      7552      7549      7547      7550      7553
      7550      7553      7556      7557      7550      7553      7556      7558
      7550      7553      7556      7559      7551      7550      7553      7554
      7551      7550      7553      7555      7551      7550      7553      7556
      7552      7550      7553      7554      7552      7550      7553      7555
      7552      7550      7553      7556      7553      7556      7559      7560
      7553      7556      7559      7561      7553      7556      7559      7562
      7554      7553      7556      7557      7554      7553      7556      7558
      7554      7553      7556      7559      7555      7553      7556      7557
      7555      7553      7556      7558      7555      7553      7556      7559
      7556      7559      7562      7563      7556      7559      7562      7564
      7557      7556      7559      7560      7557      7556      7559      7561
      7557      7556      7559      7562      7558      7556      7559      7560
      7558      7556      7559      7561      7558      7556      7559      7562
      7559      7562      7564      7565      7559      7562      7564      7566
      7560      7559      7562      7563      7560      7559      7562      7564
      7561      7559      7562      7563      7561      7559      7562      7564
      7562      7564      7566      7567      7562      7564      7566      7568
      7562      7564      7566      7569      7563      7562      7564      7565
      7563      7562      7564      7566      7564      7566      7569      7570
      7564      7566      7569      7571      7564      7566      7569      7572
      7565      7564      7566      7567      7565      7564      7566      7568
      7565      7564      7566      7569      7566      7569      7572      7573
      7566      7569      7572      7574      7566      7569      7572      7575
      7567      7566      7569      7570      7567      7566      7569      7571
      7567      7566      7569      7572      7568      7566      7569      7570
      7568      7566      7569      7571      7568      7566      7569      7572
      7569      7572      7575      7576      7569      7572      7575      7577
      7569      7572      7575      7578      7570      7569      7572      7573
      7570      7569      7572      7574      7570      7569      7572      7575
      7571      7569      7572      7573      7571      7569      7572      7574
      7571      7569      7572      7575      7572      7575      7578      7579
      7572      7575      7578      7580      7572      7575      7578      7581
      7573      7572      7575      7576      7573      7572      7575      7577
      7573      7572      7575      7578      7574      7572      7575      7576
      7574      7572      7575      7577      7574      7572      7575      7578
      7575      7578      7581      7582      7575      7578      7581      7583
      7575      7578      7581      7584      7576      7575      7578      7579
      7576      7575      7578      7580      7576      7575      7578      7581
      7577      7575      7578      7579      7577      7575      7578      7580
      7577      7575      7578      7581      7578      7581      7584      7585
      7578      7581      7584      7586      7578      7581      7584      7587
      7579      7578      7581      7582      7579      7578      7581      7583
      7579      7578      7581      7584      7580      7578      7581      7582
      7580      7578      7581      7583      7580      7578      7581      7584
      7581      7584      7587      7588      7581      7584      7587      7589
      7581      7584      7587      7590      7582      7581      7584      7585
      7582      7581      7584      7586      7582      7581      7584      7587
      7583      7581      7584      7585      7583      7581      7584      7586
      7583      7581      7584      7587      7585      7584      7587      7588
      7585      7584      7587      7589      7585      7584      7587      7590
      7586      7584      7587      7588      7586      7584      7587      7589
      7586      7584      7587      7590      7591      7592      7607      7608
      7591      7592      7607      7609      7591      7592      7607      7613
      7592      7591      7595      7596      7592      7591      7595      7597
      7592      7591      7595      7598      7592      7591      7599      7600
      7592      7591      7599      7601      7592      7591      7599      7602
      7592      7591      7603      7604      7592      7591      7603      7605
      7592      7591      7603      7606      7592      7607      7613      7610
      7593      7592      7591      7595      7593      7592      7591      7599
      7593      7592      7591      7603      7593      7592      7607      7608
      7593      7592      7607      7609      7593      7592      7607      7613
      7594      7592      7591      7595      7594      7592      7591      7599
      7594      7592      7591      7603      7594      7592      7607      7608
      7594      7592      7607      7609      7594      7592      7607      7613
      7595      7591      7592      7607      7595      7591      7599      7600
      7595      7591      7599      7601      7595      7591      7599      7602
      7595      7591      7603      7604      7595      7591      7603      7605
      7595      7591      7603      7606      7596      7595      7591      7599
      7596      7595      7591      7603      7597      7595      7591      7599
      7597      7595      7591      7603      7598      7595      7591      7599
      7598      7595      7591      7603      7599      7591      7592      7607
      7599      7591      7603      7604      7599      7591      7603      7605
      7599      7591      7603      7606      7600      7599      7591      7603
      7601      7599      7591      7603      7602      7599      7591      7603
      7603      7591      7592      7607      7607      7613      7610      7611
      7607      7613      7610      7612      7607      7613      7610      7614
      7608      7607      7613      7610      7609      7607      7613      7610
      7610      7614      7615      7616      7610      7614      7615      7617
      7610      7614      7615      7618      7611      7610      7614      7615
      7612      7610      7614      7615      7613      7610      7614      7615
      7614      7615      7618      7619      7614      7615      7618      7620
      7614      7615      7618      7626      7615      7618      7620      7621
      7615      7618      7626      7627      7615      7618      7626      7628
      7615      7618      7626      7629      7616      7615      7618      7619
      7616      7615      7618      7620      7616      7615      7618      7626
      7617      7615      7618      7619      7617      7615      7618      7620
      7617      7615      7618      7626      7618      7620      7621      7622
      7618      7620      7621      7623      7618      7626      7629      7630
      7619      7618      7620      7621      7619      7618      7626      7627
      7619      7618      7626      7628      7619      7618      7626      7629
      7620      7618      7626      7627      7620      7618      7626      7628
      7620      7618      7626      7629      7620      7621      7623      7624
      7620      7621      7623      7625      7620      7621      7623      7635
      7621      7620      7618      7626      7621      7623      7635      7636
      7621      7623      7635      7637      7621      7623      7635      7638
      7622      7621      7623      7624      7622      7621      7623      7625
      7622      7621      7623      7635      7623      7635      7638      7639
      7623      7635      7638      7640      7623      7635      7638      7641
      7624      7623      7635      7636      7624      7623      7635      7637
      7624      7623      7635      7638      7625      7623      7635      7636
      7625      7623      7635      7637      7625      7623      7635      7638
      7626      7629      7630      7631      7626      7629      7630      7632
      7627      7626      7629      7630      7628      7626      7629      7630
      7629      7630      7632      7633      7629      7630      7632      7634
      7629      7630      7632      7682      7630      7632      7682      7683
      7630      7632      7682      7684      7630      7632      7682      7685
      7631      7630      7632      7633      7631      7630      7632      7634
      7631      7630      7632      7682      7632      7682      7685      7686
      7632      7682      7685      7687      7632      7682      7685      7688
      7633      7632      7682      7683      7633      7632      7682      7684
      7633      7632      7682      7685      7634      7632      7682      7683
      7634      7632      7682      7684      7634      7632      7682      7685
      7635      7638      7641      7642      7635      7638      7641      7643
      7635      7638      7641      7644      7636      7635      7638      7639
      7636      7635      7638      7640      7636      7635      7638      7641
      7637      7635      7638      7639      7637      7635      7638      7640
      7637      7635      7638      7641      7638      7641      7644      7645
      7638      7641      7644      7646      7638      7641      7644      7647
      7639      7638      7641      7642      7639      7638      7641      7643
      7639      7638      7641      7644      7640      7638      7641      7642
      7640      7638      7641      7643      7640      7638      7641      7644
      7641      7644      7647      7648      7641      7644      7647      7649
      7641      7644      7647      7650      7642      7641      7644      7645
      7642      7641      7644      7646      7642      7641      7644      7647
      7643      7641      7644      7645      7643      7641      7644      7646
      7643      7641      7644      7647      7644      7647      7650      7651
      7644      7647      7650      7652      7644      7647      7650      7653
      7645      7644      7647      7648      7645      7644      7647      7649
      7645      7644      7647      7650      7646      7644      7647      7648
      7646      7644      7647      7649      7646      7644      7647      7650
      7647      7650      7653      7654      7647      7650      7653      7655
      7648      7647      7650      7651      7648      7647      7650      7652
      7648      7647      7650      7653      7649      7647      7650      7651
      7649      7647      7650      7652      7649      7647      7650      7653
      7650      7653      7655      7656      7650      7653      7655      7657
      7651      7650      7653      7654      7651      7650      7653      7655
      7652      7650      7653      7654      7652      7650      7653      7655
      7653      7655      7657      7658      7653      7655      7657      7659
      7653      7655      7657      7660      7654      7653      7655      7656
      7654      7653      7655      7657      7655      7657      7660      7661
      7655      7657      7660      7662      7655      7657      7660      7663
      7656      7655      7657      7658      7656      7655      7657      7659
      7656      7655      7657      7660      7657      7660      7663      7664
      7657      7660      7663      7665      7657      7660      7663      7666
      7658      7657      7660      7661      7658      7657      7660      7662
      7658      7657      7660      7663      7659      7657      7660      7661
      7659      7657      7660      7662      7659      7657      7660      7663
      7660      7663      7666      7667      7660      7663      7666      7668
      7660      7663      7666      7669      7661      7660      7663      7664
      7661      7660      7663      7665      7661      7660      7663      7666
      7662      7660      7663      7664      7662      7660      7663      7665
      7662      7660      7663      7666      7663      7666      7669      7670
      7663      7666      7669      7671      7663      7666      7669      7672
      7664      7663      7666      7667      7664      7663      7666      7668
      7664      7663      7666      7669      7665      7663      7666      7667
      7665      7663      7666      7668      7665      7663      7666      7669
      7666      7669      7672      7673      7666      7669      7672      7674
      7666      7669      7672      7675      7667      7666      7669      7670
      7667      7666      7669      7671      7667      7666      7669      7672
      7668      7666      7669      7670      7668      7666      7669      7671
      7668      7666      7669      7672      7669      7672      7675      7676
      7669      7672      7675      7677      7669      7672      7675      7678
      7670      7669      7672      7673      7670      7669      7672      7674
      7670      7669      7672      7675      7671      7669      7672      7673
      7671      7669      7672      7674      7671      7669      7672      7675
      7672      7675      7678      7679      7672      7675      7678      7680
      7672      7675      7678      7681      7673      7672      7675      7676
      7673      7672      7675      7677      7673      7672      7675      7678
      7674      7672      7675      7676      7674      7672      7675      7677
      7674      7672      7675      7678      7676      7675      7678      7679
      7676      7675      7678      7680      7676      7675      7678      7681
      7677      7675      7678      7679      7677      7675      7678      7680
      7677      7675      7678      7681      7682      7685      7688      7689
      7682      7685      7688      7690      7682      7685      7688      7691
      7683      7682      7685      7686      7683      7682      7685      7687
      7683      7682      7685      7688      7684      7682      7685      7686
      7684      7682      7685      7687      7684      7682      7685      7688
      7685      7688      7691      7692      7685      7688      7691      7693
      7685      7688      7691      7694      7686      7685      7688      7689
      7686      7685      7688      7690      7686      7685      7688      7691
      7687      7685      7688      7689      7687      7685      7688      7690
      7687      7685      7688      7691      7688      7691      7694      7695
      7688      7691      7694      7696      7688      7691      7694      7697
      7689      7688      7691      7692      7689      7688      7691      7693
      7689      7688      7691      7694      7690      7688      7691      7692
      7690      7688      7691      7693      7690      7688      7691      7694
      7691      7694      7697      7698      7691      7694      7697      7699
      7691      7694      7697      7700      7692      7691      7694      7695
      7692      7691      7694      7696      7692      7691      7694      7697
      7693      7691      7694      7695      7693      7691      7694      7696
      7693      7691      7694      7697      7694      7697      7700      7701
      7694      7697      7700      7702      7695      7694      7697      7698
      7695      7694      7697      7699      7695      7694      7697      7700
      7696      7694      7697      7698      7696      7694      7697      7699
      7696      7694      7697      7700      7697      7700      7702      7703
      7697      7700      7702      7704      7698      7697      7700      7701
      7698      7697      7700      7702      7699      7697      7700      7701
      7699      7697      7700      7702      7700      7702      7704      7705
      7700      7702      7704      7706      7700      7702      7704      7707
      7701      7700      7702      7703      7701      7700      7702      7704
      7702      7704      7707      7708      7702      7704      7707      7709
      7702      7704      7707      7710      7703      7702      7704      7705
      7703      7702      7704      7706      7703      7702      7704      7707
      7704      7707      7710      7711      7704      7707      7710      7712
      7704      7707      7710      7713      7705      7704      7707      7708
      7705      7704      7707      7709      7705      7704      7707      7710
      7706      7704      7707      7708      7706      7704      7707      7709
      7706      7704      7707      7710      7707      7710      7713      7714
      7707      7710      7713      7715      7707      7710      7713      7716
      7708      7707      7710      7711      7708      7707      7710      7712
      7708      7707      7710      7713      7709      7707      7710      7711
      7709      7707      7710      7712      7709      7707      7710      7713
      7710      7713      7716      7717      7710      7713      7716      7718
      7710      7713      7716      7719      7711      7710      7713      7714
      7711      7710      7713      7715      7711      7710      7713      7716
      7712      7710      7713      7714      7712      7710      7713      7715
      7712      7710      7713      7716      7713      7716      7719      7720
      7713      7716      7719      7721      7713      7716      7719      7722
      7714      7713      7716      7717      7714      7713      7716      7718
      7714      7713      7716      7719      7715      7713      7716      7717
      7715      7713      7716      7718      7715      7713      7716      7719
      7716      7719      7722      7723      7716      7719      7722      7724
      7716      7719      7722      7725      7717      7716      7719      7720
      7717      7716      7719      7721      7717      7716      7719      7722
      7718      7716      7719      7720      7718      7716      7719      7721
      7718      7716      7719      7722      7719      7722      7725      7726
      7719      7722      7725      7727      7719      7722      7725      7728
      7720      7719      7722      7723      7720      7719      7722      7724
      7720      7719      7722      7725      7721      7719      7722      7723
      7721      7719      7722      7724      7721      7719      7722      7725
      7723      7722      7725      7726      7723      7722      7725      7727
      7723      7722      7725      7728      7724      7722      7725      7726
      7724      7722      7725      7727      7724      7722      7725      7728
      7729      7730      7745      7746      7729      7730      7745      7747
      7729      7730      7745      7751      7730      7729      7733      7734
      7730      7729      7733      7735      7730      7729      7733      7736
      7730      7729      7737      7738      7730      7729      7737      7739
      7730      7729      7737      7740      7730      7729      7741      7742
      7730      7729      7741      7743      7730      7729      7741      7744
      7730      7745      7751      7748      7731      7730      7729      7733
      7731      7730      7729      7737      7731      7730      7729      7741
      7731      7730      7745      7746      7731      7730      7745      7747
      7731      7730      7745      7751      7732      7730      7729      7733
      7732      7730      7729      7737      7732      7730      7729      7741
      7732      7730      7745      7746      7732      7730      7745      7747
      7732      7730      7745      7751      7733      7729      7730      7745
      7733      7729      7737      7738      7733      7729      7737      7739
      7733      7729      7737      7740      7733      7729      7741      7742
      7733      7729      7741      7743      7733      7729      7741      7744
      7734      7733      7729      7737      7734      7733      7729      7741
      7735      7733      7729      7737      7735      7733      7729      7741
      7736      7733      7729      7737      7736      7733      7729      7741
      7737      7729      7730      7745      7737      7729      7741      7742
      7737      7729      7741      7743      7737      7729      7741      7744
      7738      7737      7729      7741      7739      7737      7729      7741
      7740      7737      7729      7741      7741      7729      7730      7745
      7745      7751      7748      7749      7745      7751      7748      7750
      7745      7751      7748      7752      7746      7745      7751      7748
      7747      7745      7751      7748      7748      7752      7753      7754
      7748      7752      7753      7755      7748      7752      7753      7756
      7749      7748      7752      7753      7750      7748      7752      7753
      7751      7748      7752      7753      7752      7753      7756      7757
      7752      7753      7756      7758      7752      7753      7756      7764
      7753      7756      7758      7759      7753      7756      7764      7765
      7753      7756      7764      7766      7753      7756      7764      7767
      7754      7753      7756      7757      7754      7753      7756      7758
      7754      7753      7756      7764      7755      7753      7756      7757
      7755      7753      7756      7758      7755      7753      7756      7764
      7756      7758      7759      7760      7756      7758      7759      7761
      7756      7764      7767      7768      7757      7756      7758      7759
      7757      7756      7764      7765      7757      7756      7764      7766
      7757      7756      7764      7767      7758      7756      7764      7765
      7758      7756      7764      7766      7758      7756      7764      7767
      7758      7759      7761      7762      7758      7759      7761      7763
      7758      7759      7761      7773      7759      7758      7756      7764
      7759      7761      7773      7774      7759      7761      7773      7775
      7759      7761      7773      7776      7760      7759      7761      7762
      7760      7759      7761      7763      7760      7759      7761      7773
      7761      7773      7776      7777      7761      7773      7776      7778
      7761      7773      7776      7779      7762      7761      7773      7774
      7762      7761      7773      7775      7762      7761      7773      7776
      7763      7761      7773      7774      7763      7761      7773      7775
      7763      7761      7773      7776      7764      7767      7768      7769
      7764      7767      7768      7770      7765      7764      7767      7768
      7766      7764      7767      7768      7767      7768      7770      7771
      7767      7768      7770      7772      7767      7768      7770      7820
      7768      7770      7820      7821      7768      7770      7820      7822
      7768      7770      7820      7823      7769      7768      7770      7771
      7769      7768      7770      7772      7769      7768      7770      7820
      7770      7820      7823      7824      7770      7820      7823      7825
      7770      7820      7823      7826      7771      7770      7820      7821
      7771      7770      7820      7822      7771      7770      7820      7823
      7772      7770      7820      7821      7772      7770      7820      7822
      7772      7770      7820      7823      7773      7776      7779      7780
      7773      7776      7779      7781      7773      7776      7779      7782
      7774      7773      7776      7777      7774      7773      7776      7778
      7774      7773      7776      7779      7775      7773      7776      7777
      7775      7773      7776      7778      7775      7773      7776      7779
      7776      7779      7782      7783      7776      7779      7782      7784
      7776      7779      7782      7785      7777      7776      7779      7780
      7777      7776      7779      7781      7777      7776      7779      7782
      7778      7776      7779      7780      7778      7776      7779      7781
      7778      7776      7779      7782      7779      7782      7785      7786
      7779      7782      7785      7787      7779      7782      7785      7788
      7780      7779      7782      7783      7780      7779      7782      7784
      7780      7779      7782      7785      7781      7779      7782      7783
      7781      7779      7782      7784      7781      7779      7782      7785
      7782      7785      7788      7789      7782      7785      7788      7790
      7782      7785      7788      7791      7783      7782      7785      7786
      7783      7782      7785      7787      7783      7782      7785      7788
      7784      7782      7785      7786      7784      7782      7785      7787
      7784      7782      7785      7788      7785      7788      7791      7792
      7785      7788      7791      7793      7786      7785      7788      7789
      7786      7785      7788      7790      7786      7785      7788      7791
      7787      7785      7788      7789      7787      7785      7788      7790
      7787      7785      7788      7791      7788      7791      7793      7794
      7788      7791      7793      7795      7789      7788      7791      7792
      7789      7788      7791      7793      7790      7788      7791      7792
      7790      7788      7791      7793      7791      7793      7795      7796
      7791      7793      7795      7797      7791      7793      7795      7798
      7792      7791      7793      7794      7792      7791      7793      7795
      7793      7795      7798      7799      7793      7795      7798      7800
      7793      7795      7798      7801      7794      7793      7795      7796
      7794      7793      7795      7797      7794      7793      7795      7798
      7795      7798      7801      7802      7795      7798      7801      7803
      7795      7798      7801      7804      7796      7795      7798      7799
      7796      7795      7798      7800      7796      7795      7798      7801
      7797      7795      7798      7799      7797      7795      7798      7800
      7797      7795      7798      7801      7798      7801      7804      7805
      7798      7801      7804      7806      7798      7801      7804      7807
      7799      7798      7801      7802      7799      7798      7801      7803
      7799      7798      7801      7804      7800      7798      7801      7802
      7800      7798      7801      7803      7800      7798      7801      7804
      7801      7804      7807      7808      7801      7804      7807      7809
      7801      7804      7807      7810      7802      7801      7804      7805
      7802      7801      7804      7806      7802      7801      7804      7807
      7803      7801      7804      7805      7803      7801      7804      7806
      7803      7801      7804      7807      7804      7807      7810      7811
      7804      7807      7810      7812      7804      7807      7810      7813
      7805      7804      7807      7808      7805      7804      7807      7809
      7805      7804      7807      7810      7806      7804      7807      7808
      7806      7804      7807      7809      7806      7804      7807      7810
      7807      7810      7813      7814      7807      7810      7813      7815
      7807      7810      7813      7816      7808      7807      7810      7811
      7808      7807      7810      7812      7808      7807      7810      7813
      7809      7807      7810      7811      7809      7807      7810      7812
      7809      7807      7810      7813      7810      7813      7816      7817
      7810      7813      7816      7818      7810      7813      7816      7819
      7811      7810      7813      7814      7811      7810      7813      7815
      7811      7810      7813      7816      7812      7810      7813      7814
      7812      7810      7813      7815      7812      7810      7813      7816
      7814      7813      7816      7817      7814      7813      7816      7818
      7814      7813      7816      7819      7815      7813      7816      7817
      7815      7813      7816      7818      7815      7813      7816      7819
      7820      7823      7826      7827      7820      7823      7826      7828
      7820      7823      7826      7829      7821      7820      7823      7824
      7821      7820      7823      7825      7821      7820      7823      7826
      7822      7820      7823      7824      7822      7820      7823      7825
      7822      7820      7823      7826      7823      7826      7829      7830
      7823      7826      7829      7831      7823      7826      7829      7832
      7824      7823      7826      7827      7824      7823      7826      7828
      7824      7823      7826      7829      7825      7823      7826      7827
      7825      7823      7826      7828      7825      7823      7826      7829
      7826      7829      7832      7833      7826      7829      7832      7834
      7826      7829      7832      7835      7827      7826      7829      7830
      7827      7826      7829      7831      7827      7826      7829      7832
      7828      7826      7829      7830      7828      7826      7829      7831
      7828      7826      7829      7832      7829      7832      7835      7836
      7829      7832      7835      7837      7829      7832      7835      7838
      7830      7829      7832      7833      7830      7829      7832      7834
      7830      7829      7832      7835      7831      7829      7832      7833
      7831      7829      7832      7834      7831      7829      7832      7835
      7832      7835      7838      7839      7832      7835      7838      7840
      7833      7832      7835      7836      7833      7832      7835      7837
      7833      7832      7835      7838      7834      7832      7835      7836
      7834      7832      7835      7837      7834      7832      7835      7838
      7835      7838      7840      7841      7835      7838      7840      7842
      7836      7835      7838      7839      7836      7835      7838      7840
      7837      7835      7838      7839      7837      7835      7838      7840
      7838      7840      7842      7843      7838      7840      7842      7844
      7838      7840      7842      7845      7839      7838      7840      7841
      7839      7838      7840      7842      7840      7842      7845      7846
      7840      7842      7845      7847      7840      7842      7845      7848
      7841      7840      7842      7843      7841      7840      7842      7844
      7841      7840      7842      7845      7842      7845      7848      7849
      7842      7845      7848      7850      7842      7845      7848      7851
      7843      7842      7845      7846      7843      7842      7845      7847
      7843      7842      7845      7848      7844      7842      7845      7846
      7844      7842      7845      7847      7844      7842      7845      7848
      7845      7848      7851      7852      7845      7848      7851      7853
      7845      7848      7851      7854      7846      7845      7848      7849
      7846      7845      7848      7850      7846      7845      7848      7851
      7847      7845      7848      7849      7847      7845      7848      7850
      7847      7845      7848      7851      7848      7851      7854      7855
      7848      7851      7854      7856      7848      7851      7854      7857
      7849      7848      7851      7852      7849      7848      7851      7853
      7849      7848      7851      7854      7850      7848      7851      7852
      7850      7848      7851      7853      7850      7848      7851      7854
      7851      7854      7857      7858      7851      7854      7857      7859
      7851      7854      7857      7860      7852      7851      7854      7855
      7852      7851      7854      7856      7852      7851      7854      7857
      7853      7851      7854      7855      7853      7851      7854      7856
      7853      7851      7854      7857      7854      7857      7860      7861
      7854      7857      7860      7862      7854      7857      7860      7863
      7855      7854      7857      7858      7855      7854      7857      7859
      7855      7854      7857      7860      7856      7854      7857      7858
      7856      7854      7857      7859      7856      7854      7857      7860
      7857      7860      7863      7864      7857      7860      7863      7865
      7857      7860      7863      7866      7858      7857      7860      7861
      7858      7857      7860      7862      7858      7857      7860      7863
      7859      7857      7860      7861      7859      7857      7860      7862
      7859      7857      7860      7863      7861      7860      7863      7864
      7861      7860      7863      7865      7861      7860      7863      7866
      7862      7860      7863      7864      7862      7860      7863      7865
      7862      7860      7863      7866      7867      7868      7883      7884
      7867      7868      7883      7885      7867      7868      7883      7889
      7868      7867      7871      7872      7868      7867      7871      7873
      7868      7867      7871      7874      7868      7867      7875      7876
      7868      7867      7875      7877      7868      7867      7875      7878
      7868      7867      7879      7880      7868      7867      7879      7881
      7868      7867      7879      7882      7868      7883      7889      7886
      7869      7868      7867      7871      7869      7868      7867      7875
      7869      7868      7867      7879      7869      7868      7883      7884
      7869      7868      7883      7885      7869      7868      7883      7889
      7870      7868      7867      7871      7870      7868      7867      7875
      7870      7868      7867      7879      7870      7868      7883      7884
      7870      7868      7883      7885      7870      7868      7883      7889
      7871      7867      7868      7883      7871      7867      7875      7876
      7871      7867      7875      7877      7871      7867      7875      7878
      7871      7867      7879      7880      7871      7867      7879      7881
      7871      7867      7879      7882      7872      7871      7867      7875
      7872      7871      7867      7879      7873      7871      7867      7875
      7873      7871      7867      7879      7874      7871      7867      7875
      7874      7871      7867      7879      7875      7867      7868      7883
      7875      7867      7879      7880      7875      7867      7879      7881
      7875      7867      7879      7882      7876      7875      7867      7879
      7877      7875      7867      7879      7878      7875      7867      7879
      7879      7867      7868      7883      7883      7889      7886      7887
      7883      7889      7886      7888      7883      7889      7886      7890
      7884      7883      7889      7886      7885      7883      7889      7886
      7886      7890      7891      7892      7886      7890      7891      7893
      7886      7890      7891      7894      7887      7886      7890      7891
      7888      7886      7890      7891      7889      7886      7890      7891
      7890      7891      7894      7895      7890      7891      7894      7896
      7890      7891      7894      7902      7891      7894      7896      7897
      7891      7894      7902      7903      7891      7894      7902      7904
      7891      7894      7902      7905      7892      7891      7894      7895
      7892      7891      7894      7896      7892      7891      7894      7902
      7893      7891      7894      7895      7893      7891      7894      7896
      7893      7891      7894      7902      7894      7896      7897      7898
      7894      7896      7897      7899      7894      7902      7905      7906
      7895      7894      7896      7897      7895      7894      7902      7903
      7895      7894      7902      7904      7895      7894      7902      7905
      7896      7894      7902      7903      7896      7894      7902      7904
      7896      7894      7902      7905      7896      7897      7899      7900
      7896      7897      7899      7901      7896      7897      7899      7911
      7897      7896      7894      7902      7897      7899      7911      7912
      7897      7899      7911      7913      7897      7899      7911      7914
      7898      7897      7899      7900      7898      7897      7899      7901
      7898      7897      7899      7911      7899      7911      7914      7915
      7899      7911      7914      7916      7899      7911      7914      7917
      7900      7899      7911      7912      7900      7899      7911      7913
      7900      7899      7911      7914      7901      7899      7911      7912
      7901      7899      7911      7913      7901      7899      7911      7914
      7902      7905      7906      7907      7902      7905      7906      7908
      7903      7902      7905      7906      7904      7902      7905      7906
      7905      7906      7908      7909      7905      7906      7908      7910
      7905      7906      7908      7958      7906      7908      7958      7959
      7906      7908      7958      7960      7906      7908      7958      7961
      7907      7906      7908      7909      7907      7906      7908      7910
      7907      7906      7908      7958      7908      7958      7961      7962
      7908      7958      7961      7963      7908      7958      7961      7964
      7909      7908      7958      7959      7909      7908      7958      7960
      7909      7908      7958      7961      7910      7908      7958      7959
      7910      7908      7958      7960      7910      7908      7958      7961
      7911      7914      7917      7918      7911      7914      7917      7919
      7911      7914      7917      7920      7912      7911      7914      7915
      7912      7911      7914      7916      7912      7911      7914      7917
      7913      7911      7914      7915      7913      7911      7914      7916
      7913      7911      7914      7917      7914      7917      7920      7921
      7914      7917      7920      7922      7914      7917      7920      7923
      7915      7914      7917      7918      7915      7914      7917      7919
      7915      7914      7917      7920      7916      7914      7917      7918
      7916      7914      7917      7919      7916      7914      7917      7920
      7917      7920      7923      7924      7917      7920      7923      7925
      7917      7920      7923      7926      7918      7917      7920      7921
      7918      7917      7920      7922      7918      7917      7920      7923
      7919      7917      7920      7921      7919      7917      7920      7922
      7919      7917      7920      7923      7920      7923      7926      7927
      7920      7923      7926      7928      7920      7923      7926      7929
      7921      7920      7923      7924      7921      7920      7923      7925
      7921      7920      7923      7926      7922      7920      7923      7924
      7922      7920      7923      7925      7922      7920      7923      7926
      7923      7926      7929      7930      7923      7926      7929      7931
      7924      7923      7926      7927      7924      7923      7926      7928
      7924      7923      7926      7929      7925      7923      7926      7927
      7925      7923      7926      7928      7925      7923      7926      7929
      7926      7929      7931      7932      7926      7929      7931      7933
      7927      7926      7929      7930      7927      7926      7929      7931
      7928      7926      7929      7930      7928      7926      7929      7931
      7929      7931      7933      7934      7929      7931      7933      7935
      7929      7931      7933      7936      7930      7929      7931      7932
      7930      7929      7931      7933      7931      7933      7936      7937
      7931      7933      7936      7938      7931      7933      7936      7939
      7932      7931      7933      7934      7932      7931      7933      7935
      7932      7931      7933      7936      7933      7936      7939      7940
      7933      7936      7939      7941      7933      7936      7939      7942
      7934      7933      7936      7937      7934      7933      7936      7938
      7934      7933      7936      7939      7935      7933      7936      7937
      7935      7933      7936      7938      7935      7933      7936      7939
      7936      7939      7942      7943      7936      7939      7942      7944
      7936      7939      7942      7945      7937      7936      7939      7940
      7937      7936      7939      7941      7937      7936      7939      7942
      7938      7936      7939      7940      7938      7936      7939      7941
      7938      7936      7939      7942      7939      7942      7945      7946
      7939      7942      7945      7947      7939      7942      7945      7948
      7940      7939      7942      7943      7940      7939      7942      7944
      7940      7939      7942      7945      7941      7939      7942      7943
      7941      7939      7942      7944      7941      7939      7942      7945
      7942      7945      7948      7949      7942      7945      7948      7950
      7942      7945      7948      7951      7943      7942      7945      7946
      7943      7942      7945      7947      7943      7942      7945      7948
      7944      7942      7945      7946      7944      7942      7945      7947
      7944      7942      7945      7948      7945      7948      7951      7952
      7945      7948      7951      7953      7945      7948      7951      7954
      7946      7945      7948      7949      7946      7945      7948      7950
      7946      7945      7948      7951      7947      7945      7948      7949
      7947      7945      7948      7950      7947      7945      7948      7951
      7948      7951      7954      7955      7948      7951      7954      7956
      7948      7951      7954      7957      7949      7948      7951      7952
      7949      7948      7951      7953      7949      7948      7951      7954
      7950      7948      7951      7952      7950      7948      7951      7953
      7950      7948      7951      7954      7952      7951      7954      7955
      7952      7951      7954      7956      7952      7951      7954      7957
      7953      7951      7954      7955      7953      7951      7954      7956
      7953      7951      7954      7957      7958      7961      7964      7965
      7958      7961      7964      7966      7958      7961      7964      7967
      7959      7958      7961      7962      7959      7958      7961      7963
      7959      7958      7961      7964      7960      7958      7961      7962
      7960      7958      7961      7963      7960      7958      7961      7964
      7961      7964      7967      7968      7961      7964      7967      7969
      7961      7964      7967      7970      7962      7961      7964      7965
      7962      7961      7964      7966      7962      7961      7964      7967
      7963      7961      7964      7965      7963      7961      7964      7966
      7963      7961      7964      7967      7964      7967      7970      7971
      7964      7967      7970      7972      7964      7967      7970      7973
      7965      7964      7967      7968      7965      7964      7967      7969
      7965      7964      7967      7970      7966      7964      7967      7968
      7966      7964      7967      7969      7966      7964      7967      7970
      7967      7970      7973      7974      7967      7970      7973      7975
      7967      7970      7973      7976      7968      7967      7970      7971
      7968      7967      7970      7972      7968      7967      7970      7973
      7969      7967      7970      7971      7969      7967      7970      7972
      7969      7967      7970      7973      7970      7973      7976      7977
      7970      7973      7976      7978      7971      7970      7973      7974
      7971      7970      7973      7975      7971      7970      7973      7976
      7972      7970      7973      7974      7972      7970      7973      7975
      7972      7970      7973      7976      7973      7976      7978      7979
      7973      7976      7978      7980      7974      7973      7976      7977
      7974      7973      7976      7978      7975      7973      7976      7977
      7975      7973      7976      7978      7976      7978      7980      7981
      7976      7978      7980      7982      7976      7978      7980      7983
      7977      7976      7978      7979      7977      7976      7978      7980
      7978      7980      7983      7984      7978      7980      7983      7985
      7978      7980      7983      7986      7979      7978      7980      7981
      7979      7978      7980      7982      7979      7978      7980      7983
      7980      7983      7986      7987      7980      7983      7986      7988
      7980      7983      7986      7989      7981      7980      7983      7984
      7981      7980      7983      7985      7981      7980      7983      7986
      7982      7980      7983      7984      7982      7980      7983      7985
      7982      7980      7983      7986      7983      7986      7989      7990
      7983      7986      7989      7991      7983      7986      7989      7992
      7984      7983      7986      7987      7984      7983      7986      7988
      7984      7983      7986      7989      7985      7983      7986      7987
      7985      7983      7986      7988      7985      7983      7986      7989
      7986      7989      7992      7993      7986      7989      7992      7994
      7986      7989      7992      7995      7987      7986      7989      7990
      7987      7986      7989      7991      7987      7986      7989      7992
      7988      7986      7989      7990      7988      7986      7989      7991
      7988      7986      7989      7992      7989      7992      7995      7996
      7989      7992      7995      7997      7989      7992      7995      7998
      7990      7989      7992      7993      7990      7989      7992      7994
      7990      7989      7992      7995      7991      7989      7992      7993
      7991      7989      7992      7994      7991      7989      7992      7995
      7992      7995      7998      7999      7992      7995      7998      8000
      7992      7995      7998      8001      7993      7992      7995      7996
      7993      7992      7995      7997      7993      7992      7995      7998
      7994      7992      7995      7996      7994      7992      7995      7997
      7994      7992      7995      7998      7995      7998      8001      8002
      7995      7998      8001      8003      7995      7998      8001      8004
      7996      7995      7998      7999      7996      7995      7998      8000
      7996      7995      7998      8001      7997      7995      7998      7999
      7997      7995      7998      8000      7997      7995      7998      8001
      7999      7998      8001      8002      7999      7998      8001      8003
      7999      7998      8001      8004      8000      7998      8001      8002
      8000      7998      8001      8003      8000      7998      8001      8004
      8005      8006      8021      8022      8005      8006      8021      8023
      8005      8006      8021      8027      8006      8005      8009      8010
      8006      8005      8009      8011      8006      8005      8009      8012
      8006      8005      8013      8014      8006      8005      8013      8015
      8006      8005      8013      8016      8006      8005      8017      8018
      8006      8005      8017      8019      8006      8005      8017      8020
      8006      8021      8027      8024      8007      8006      8005      8009
      8007      8006      8005      8013      8007      8006      8005      8017
      8007      8006      8021      8022      8007      8006      8021      8023
      8007      8006      8021      8027      8008      8006      8005      8009
      8008      8006      8005      8013      8008      8006      8005      8017
      8008      8006      8021      8022      8008      8006      8021      8023
      8008      8006      8021      8027      8009      8005      8006      8021
      8009      8005      8013      8014      8009      8005      8013      8015
      8009      8005      8013      8016      8009      8005      8017      8018
      8009      8005      8017      8019      8009      8005      8017      8020
      8010      8009      8005      8013      8010      8009      8005      8017
      8011      8009      8005      8013      8011      8009      8005      8017
      8012      8009      8005      8013      8012      8009      8005      8017
      8013      8005      8006      8021      8013      8005      8017      8018
      8013      8005      8017      8019      8013      8005      8017      8020
      8014      8013      8005      8017      8015      8013      8005      8017
      8016      8013      8005      8017      8017      8005      8006      8021
      8021      8027      8024      8025      8021      8027      8024      8026
      8021      8027      8024      8028      8022      8021      8027      8024
      8023      8021      8027      8024      8024      8028      8029      8030
      8024      8028      8029      8031      8024      8028      8029      8032
      8025      8024      8028      8029      8026      8024      8028      8029
      8027      8024      8028      8029      8028      8029      8032      8033
      8028      8029      8032      8034      8028      8029      8032      8040
      8029      8032      8034      8035      8029      8032      8040      8041
      8029      8032      8040      8042      8029      8032      8040      8043
      8030      8029      8032      8033      8030      8029      8032      8034
      8030      8029      8032      8040      8031      8029      8032      8033
      8031      8029      8032      8034      8031      8029      8032      8040
      8032      8034      8035      8036      8032      8034      8035      8037
      8032      8040      8043      8044      8033      8032      8034      8035
      8033      8032      8040      8041      8033      8032      8040      8042
      8033      8032      8040      8043      8034      8032      8040      8041
      8034      8032      8040      8042      8034      8032      8040      8043
      8034      8035      8037      8038      8034      8035      8037      8039
      8034      8035      8037      8049      8035      8034      8032      8040
      8035      8037      8049      8050      8035      8037      8049      8051
      8035      8037      8049      8052      8036      8035      8037      8038
      8036      8035      8037      8039      8036      8035      8037      8049
      8037      8049      8052      8053      8037      8049      8052      8054
      8037      8049      8052      8055      8038      8037      8049      8050
      8038      8037      8049      8051      8038      8037      8049      8052
      8039      8037      8049      8050      8039      8037      8049      8051
      8039      8037      8049      8052      8040      8043      8044      8045
      8040      8043      8044      8046      8041      8040      8043      8044
      8042      8040      8043      8044      8043      8044      8046      8047
      8043      8044      8046      8048      8043      8044      8046      8096
      8044      8046      8096      8097      8044      8046      8096      8098
      8044      8046      8096      8099      8045      8044      8046      8047
      8045      8044      8046      8048      8045      8044      8046      8096
      8046      8096      8099      8100      8046      8096      8099      8101
      8046      8096      8099      8102      8047      8046      8096      8097
      8047      8046      8096      8098      8047      8046      8096      8099
      8048      8046      8096      8097      8048      8046      8096      8098
      8048      8046      8096      8099      8049      8052      8055      8056
      8049      8052      8055      8057      8049      8052      8055      8058
      8050      8049      8052      8053      8050      8049      8052      8054
      8050      8049      8052      8055      8051      8049      8052      8053
      8051      8049      8052      8054      8051      8049      8052      8055
      8052      8055      8058      8059      8052      8055      8058      8060
      8052      8055      8058      8061      8053      8052      8055      8056
      8053      8052      8055      8057      8053      8052      8055      8058
      8054      8052      8055      8056      8054      8052      8055      8057
      8054      8052      8055      8058      8055      8058      8061      8062
      8055      8058      8061      8063      8055      8058      8061      8064
      8056      8055      8058      8059      8056      8055      8058      8060
      8056      8055      8058      8061      8057      8055      8058      8059
      8057      8055      8058      8060      8057      8055      8058      8061
      8058      8061      8064      8065      8058      8061      8064      8066
      8058      8061      8064      8067      8059      8058      8061      8062
      8059      8058      8061      8063      8059      8058      8061      8064
      8060      8058      8061      8062      8060      8058      8061      8063
      8060      8058      8061      8064      8061      8064      8067      8068
      8061      8064      8067      8069      8062      8061      8064      8065
      8062      8061      8064      8066      8062      8061      8064      8067
      8063      8061      8064      8065      8063      8061      8064      8066
      8063      8061      8064      8067      8064      8067      8069      8070
      8064      8067      8069      8071      8065      8064      8067      8068
      8065      8064      8067      8069      8066      8064      8067      8068
      8066      8064      8067      8069      8067      8069      8071      8072
      8067      8069      8071      8073      8067      8069      8071      8074
      8068      8067      8069      8070      8068      8067      8069      8071
      8069      8071      8074      8075      8069      8071      8074      8076
      8069      8071      8074      8077      8070      8069      8071      8072
      8070      8069      8071      8073      8070      8069      8071      8074
      8071      8074      8077      8078      8071      8074      8077      8079
      8071      8074      8077      8080      8072      8071      8074      8075
      8072      8071      8074      8076      8072      8071      8074      8077
      8073      8071      8074      8075      8073      8071      8074      8076
      8073      8071      8074      8077      8074      8077      8080      8081
      8074      8077      8080      8082      8074      8077      8080      8083
      8075      8074      8077      8078      8075      8074      8077      8079
      8075      8074      8077      8080      8076      8074      8077      8078
      8076      8074      8077      8079      8076      8074      8077      8080
      8077      8080      8083      8084      8077      8080      8083      8085
      8077      8080      8083      8086      8078      8077      8080      8081
      8078      8077      8080      8082      8078      8077      8080      8083
      8079      8077      8080      8081      8079      8077      8080      8082
      8079      8077      8080      8083      8080      8083      8086      8087
      8080      8083      8086      8088      8080      8083      8086      8089
      8081      8080      8083      8084      8081      8080      8083      8085
      8081      8080      8083      8086      8082      8080      8083      8084
      8082      8080      8083      8085      8082      8080      8083      8086
      8083      8086      8089      8090      8083      8086      8089      8091
      8083      8086      8089      8092      8084      8083      8086      8087
      8084      8083      8086      8088      8084      8083      8086      8089
      8085      8083      8086      8087      8085      8083      8086      8088
      8085      8083      8086      8089      8086      8089      8092      8093
      8086      8089      8092      8094      8086      8089      8092      8095
      8087      8086      8089      8090      8087      8086      8089      8091
      8087      8086      8089      8092      8088      8086      8089      8090
      8088      8086      8089      8091      8088      8086      8089      8092
      8090      8089      8092      8093      8090      8089      8092      8094
      8090      8089      8092      8095      8091      8089      8092      8093
      8091      8089      8092      8094      8091      8089      8092      8095
      8096      8099      8102      8103      8096      8099      8102      8104
      8096      8099      8102      8105      8097      8096      8099      8100
      8097      8096      8099      8101      8097      8096      8099      8102
      8098      8096      8099      8100      8098      8096      8099      8101
      8098      8096      8099      8102      8099      8102      8105      8106
      8099      8102      8105      8107      8099      8102      8105      8108
      8100      8099      8102      8103      8100      8099      8102      8104
      8100      8099      8102      8105      8101      8099      8102      8103
      8101      8099      8102      8104      8101      8099      8102      8105
      8102      8105      8108      8109      8102      8105      8108      8110
      8102      8105      8108      8111      8103      8102      8105      8106
      8103      8102      8105      8107      8103      8102      8105      8108
      8104      8102      8105      8106      8104      8102      8105      8107
      8104      8102      8105      8108      8105      8108      8111      8112
      8105      8108      8111      8113      8105      8108      8111      8114
      8106      8105      8108      8109      8106      8105      8108      8110
      8106      8105      8108      8111      8107      8105      8108      8109
      8107      8105      8108      8110      8107      8105      8108      8111
      8108      8111      8114      8115      8108      8111      8114      8116
      8109      8108      8111      8112      8109      8108      8111      8113
      8109      8108      8111      8114      8110      8108      8111      8112
      8110      8108      8111      8113      8110      8108      8111      8114
      8111      8114      8116      8117      8111      8114      8116      8118
      8112      8111      8114      8115      8112      8111      8114      8116
      8113      8111      8114      8115      8113      8111      8114      8116
      8114      8116      8118      8119      8114      8116      8118      8120
      8114      8116      8118      8121      8115      8114      8116      8117
      8115      8114      8116      8118      8116      8118      8121      8122
      8116      8118      8121      8123      8116      8118      8121      8124
      8117      8116      8118      8119      8117      8116      8118      8120
      8117      8116      8118      8121      8118      8121      8124      8125
      8118      8121      8124      8126      8118      8121      8124      8127
      8119      8118      8121      8122      8119      8118      8121      8123
      8119      8118      8121      8124      8120      8118      8121      8122
      8120      8118      8121      8123      8120      8118      8121      8124
      8121      8124      8127      8128      8121      8124      8127      8129
      8121      8124      8127      8130      8122      8121      8124      8125
      8122      8121      8124      8126      8122      8121      8124      8127
      8123      8121      8124      8125      8123      8121      8124      8126
      8123      8121      8124      8127      8124      8127      8130      8131
      8124      8127      8130      8132      8124      8127      8130      8133
      8125      8124      8127      8128      8125      8124      8127      8129
      8125      8124      8127      8130      8126      8124      8127      8128
      8126      8124      8127      8129      8126      8124      8127      8130
      8127      8130      8133      8134      8127      8130      8133      8135
      8127      8130      8133      8136      8128      8127      8130      8131
      8128      8127      8130      8132      8128      8127      8130      8133
      8129      8127      8130      8131      8129      8127      8130      8132
      8129      8127      8130      8133      8130      8133      8136      8137
      8130      8133      8136      8138      8130      8133      8136      8139
      8131      8130      8133      8134      8131      8130      8133      8135
      8131      8130      8133      8136      8132      8130      8133      8134
      8132      8130      8133      8135      8132      8130      8133      8136
      8133      8136      8139      8140      8133      8136      8139      8141
      8133      8136      8139      8142      8134      8133      8136      8137
      8134      8133      8136      8138      8134      8133      8136      8139
      8135      8133      8136      8137      8135      8133      8136      8138
      8135      8133      8136      8139      8137      8136      8139      8140
      8137      8136      8139      8141      8137      8136      8139      8142
      8138      8136      8139      8140      8138      8136      8139      8141
      8138      8136      8139      8142      8143      8144      8159      8160
      8143      8144      8159      8161      8143      8144      8159      8165
      8144      8143      8147      8148      8144      8143      8147      8149
      8144      8143      8147      8150      8144      8143      8151      8152
      8144      8143      8151      8153      8144      8143      8151      8154
      8144      8143      8155      8156      8144      8143      8155      8157
      8144      8143      8155      8158      8144      8159      8165      8162
      8145      8144      8143      8147      8145      8144      8143      8151
      8145      8144      8143      8155      8145      8144      8159      8160
      8145      8144      8159      8161      8145      8144      8159      8165
      8146      8144      8143      8147      8146      8144      8143      8151
      8146      8144      8143      8155      8146      8144      8159      8160
      8146      8144      8159      8161      8146      8144      8159      8165
      8147      8143      8144      8159      8147      8143      8151      8152
      8147      8143      8151      8153      8147      8143      8151      8154
      8147      8143      8155      8156      8147      8143      8155      8157
      8147      8143      8155      8158      8148      8147      8143      8151
      8148      8147      8143      8155      8149      8147      8143      8151
      8149      8147      8143      8155      8150      8147      8143      8151
      8150      8147      8143      8155      8151      8143      8144      8159
      8151      8143      8155      8156      8151      8143      8155      8157
      8151      8143      8155      8158      8152      8151      8143      8155
      8153      8151      8143      8155      8154      8151      8143      8155
      8155      8143      8144      8159      8159      8165      8162      8163
      8159      8165      8162      8164      8159      8165      8162      8166
      8160      8159      8165      8162      8161      8159      8165      8162
      8162      8166      8167      8168      8162      8166      8167      8169
      8162      8166      8167      8170      8163      8162      8166      8167
      8164      8162      8166      8167      8165      8162      8166      8167
      8166      8167      8170      8171      8166      8167      8170      8172
      8166      8167      8170      8178      8167      8170      8172      8173
      8167      8170      8178      8179      8167      8170      8178      8180
      8167      8170      8178      8181      8168      8167      8170      8171
      8168      8167      8170      8172      8168      8167      8170      8178
      8169      8167      8170      8171      8169      8167      8170      8172
      8169      8167      8170      8178      8170      8172      8173      8174
      8170      8172      8173      8175      8170      8178      8181      8182
      8171      8170      8172      8173      8171      8170      8178      8179
      8171      8170      8178      8180      8171      8170      8178      8181
      8172      8170      8178      8179      8172      8170      8178      8180
      8172      8170      8178      8181      8172      8173      8175      8176
      8172      8173      8175      8177      8172      8173      8175      8187
      8173      8172      8170      8178      8173      8175      8187      8188
      8173      8175      8187      8189      8173      8175      8187      8190
      8174      8173      8175      8176      8174      8173      8175      8177
      8174      8173      8175      8187      8175      8187      8190      8191
      8175      8187      8190      8192      8175      8187      8190      8193
      8176      8175      8187      8188      8176      8175      8187      8189
      8176      8175      8187      8190      8177      8175      8187      8188
      8177      8175      8187      8189      8177      8175      8187      8190
      8178      8181      8182      8183      8178      8181      8182      8184
      8179      8178      8181      8182      8180      8178      8181      8182
      8181      8182      8184      8185      8181      8182      8184      8186
      8181      8182      8184      8234      8182      8184      8234      8235
      8182      8184      8234      8236      8182      8184      8234      8237
      8183      8182      8184      8185      8183      8182      8184      8186
      8183      8182      8184      8234      8184      8234      8237      8238
      8184      8234      8237      8239      8184      8234      8237      8240
      8185      8184      8234      8235      8185      8184      8234      8236
      8185      8184      8234      8237      8186      8184      8234      8235
      8186      8184      8234      8236      8186      8184      8234      8237
      8187      8190      8193      8194      8187      8190      8193      8195
      8187      8190      8193      8196      8188      8187      8190      8191
      8188      8187      8190      8192      8188      8187      8190      8193
      8189      8187      8190      8191      8189      8187      8190      8192
      8189      8187      8190      8193      8190      8193      8196      8197
      8190      8193      8196      8198      8190      8193      8196      8199
      8191      8190      8193      8194      8191      8190      8193      8195
      8191      8190      8193      8196      8192      8190      8193      8194
      8192      8190      8193      8195      8192      8190      8193      8196
      8193      8196      8199      8200      8193      8196      8199      8201
      8193      8196      8199      8202      8194      8193      8196      8197
      8194      8193      8196      8198      8194      8193      8196      8199
      8195      8193      8196      8197      8195      8193      8196      8198
      8195      8193      8196      8199      8196      8199      8202      8203
      8196      8199      8202      8204      8196      8199      8202      8205
      8197      8196      8199      8200      8197      8196      8199      8201
      8197      8196      8199      8202      8198      8196      8199      8200
      8198      8196      8199      8201      8198      8196      8199      8202
      8199      8202      8205      8206      8199      8202      8205      8207
      8200      8199      8202      8203      8200      8199      8202      8204
      8200      8199      8202      8205      8201      8199      8202      8203
      8201      8199      8202      8204      8201      8199      8202      8205
      8202      8205      8207      8208      8202      8205      8207      8209
      8203      8202      8205      8206      8203      8202      8205      8207
      8204      8202      8205      8206      8204      8202      8205      8207
      8205      8207      8209      8210      8205      8207      8209      8211
      8205      8207      8209      8212      8206      8205      8207      8208
      8206      8205      8207      8209      8207      8209      8212      8213
      8207      8209      8212      8214      8207      8209      8212      8215
      8208      8207      8209      8210      8208      8207      8209      8211
      8208      8207      8209      8212      8209      8212      8215      8216
      8209      8212      8215      8217      8209      8212      8215      8218
      8210      8209      8212      8213      8210      8209      8212      8214
      8210      8209      8212      8215      8211      8209      8212      8213
      8211      8209      8212      8214      8211      8209      8212      8215
      8212      8215      8218      8219      8212      8215      8218      8220
      8212      8215      8218      8221      8213      8212      8215      8216
      8213      8212      8215      8217      8213      8212      8215      8218
      8214      8212      8215      8216      8214      8212      8215      8217
      8214      8212      8215      8218      8215      8218      8221      8222
      8215      8218      8221      8223      8215      8218      8221      8224
      8216      8215      8218      8219      8216      8215      8218      8220
      8216      8215      8218      8221      8217      8215      8218      8219
      8217      8215      8218      8220      8217      8215      8218      8221
      8218      8221      8224      8225      8218      8221      8224      8226
      8218      8221      8224      8227      8219      8218      8221      8222
      8219      8218      8221      8223      8219      8218      8221      8224
      8220      8218      8221      8222      8220      8218      8221      8223
      8220      8218      8221      8224      8221      8224      8227      8228
      8221      8224      8227      8229      8221      8224      8227      8230
      8222      8221      8224      8225      8222      8221      8224      8226
      8222      8221      8224      8227      8223      8221      8224      8225
      8223      8221      8224      8226      8223      8221      8224      8227
      8224      8227      8230      8231      8224      8227      8230      8232
      8224      8227      8230      8233      8225      8224      8227      8228
      8225      8224      8227      8229      8225      8224      8227      8230
      8226      8224      8227      8228      8226      8224      8227      8229
      8226      8224      8227      8230      8228      8227      8230      8231
      8228      8227      8230      8232      8228      8227      8230      8233
      8229      8227      8230      8231      8229      8227      8230      8232
      8229      8227      8230      8233      8234      8237      8240      8241
      8234      8237      8240      8242      8234      8237      8240      8243
      8235      8234      8237      8238      8235      8234      8237      8239
      8235      8234      8237      8240      8236      8234      8237      8238
      8236      8234      8237      8239      8236      8234      8237      8240
      8237      8240      8243      8244      8237      8240      8243      8245
      8237      8240      8243      8246      8238      8237      8240      8241
      8238      8237      8240      8242      8238      8237      8240      8243
      8239      8237      8240      8241      8239      8237      8240      8242
      8239      8237      8240      8243      8240      8243      8246      8247
      8240      8243      8246      8248      8240      8243      8246      8249
      8241      8240      8243      8244      8241      8240      8243      8245
      8241      8240      8243      8246      8242      8240      8243      8244
      8242      8240      8243      8245      8242      8240      8243      8246
      8243      8246      8249      8250      8243      8246      8249      8251
      8243      8246      8249      8252      8244      8243      8246      8247
      8244      8243      8246      8248      8244      8243      8246      8249
      8245      8243      8246      8247      8245      8243      8246      8248
      8245      8243      8246      8249      8246      8249      8252      8253
      8246      8249      8252      8254      8247      8246      8249      8250
      8247      8246      8249      8251      8247      8246      8249      8252
      8248      8246      8249      8250      8248      8246      8249      8251
      8248      8246      8249      8252      8249      8252      8254      8255
      8249      8252      8254      8256      8250      8249      8252      8253
      8250      8249      8252      8254      8251      8249      8252      8253
      8251      8249      8252      8254      8252      8254      8256      8257
      8252      8254      8256      8258      8252      8254      8256      8259
      8253      8252      8254      8255      8253      8252      8254      8256
      8254      8256      8259      8260      8254      8256      8259      8261
      8254      8256      8259      8262      8255      8254      8256      8257
      8255      8254      8256      8258      8255      8254      8256      8259
      8256      8259      8262      8263      8256      8259      8262      8264
      8256      8259      8262      8265      8257      8256      8259      8260
      8257      8256      8259      8261      8257      8256      8259      8262
      8258      8256      8259      8260      8258      8256      8259      8261
      8258      8256      8259      8262      8259      8262      8265      8266
      8259      8262      8265      8267      8259      8262      8265      8268
      8260      8259      8262      8263      8260      8259      8262      8264
      8260      8259      8262      8265      8261      8259      8262      8263
      8261      8259      8262      8264      8261      8259      8262      8265
      8262      8265      8268      8269      8262      8265      8268      8270
      8262      8265      8268      8271      8263      8262      8265      8266
      8263      8262      8265      8267      8263      8262      8265      8268
      8264      8262      8265      8266      8264      8262      8265      8267
      8264      8262      8265      8268      8265      8268      8271      8272
      8265      8268      8271      8273      8265      8268      8271      8274
      8266      8265      8268      8269      8266      8265      8268      8270
      8266      8265      8268      8271      8267      8265      8268      8269
      8267      8265      8268      8270      8267      8265      8268      8271
      8268      8271      8274      8275      8268      8271      8274      8276
      8268      8271      8274      8277      8269      8268      8271      8272
      8269      8268      8271      8273      8269      8268      8271      8274
      8270      8268      8271      8272      8270      8268      8271      8273
      8270      8268      8271      8274      8271      8274      8277      8278
      8271      8274      8277      8279      8271      8274      8277      8280
      8272      8271      8274      8275      8272      8271      8274      8276
      8272      8271      8274      8277      8273      8271      8274      8275
      8273      8271      8274      8276      8273      8271      8274      8277
      8275      8274      8277      8278      8275      8274      8277      8279
      8275      8274      8277      8280      8276      8274      8277      8278
      8276      8274      8277      8279      8276      8274      8277      8280
      8281      8282      8297      8298      8281      8282      8297      8299
      8281      8282      8297      8303      8282      8281      8285      8286
      8282      8281      8285      8287      8282      8281      8285      8288
      8282      8281      8289      8290      8282      8281      8289      8291
      8282      8281      8289      8292      8282      8281      8293      8294
      8282      8281      8293      8295      8282      8281      8293      8296
      8282      8297      8303      8300      8283      8282      8281      8285
      8283      8282      8281      8289      8283      8282      8281      8293
      8283      8282      8297      8298      8283      8282      8297      8299
      8283      8282      8297      8303      8284      8282      8281      8285
      8284      8282      8281      8289      8284      8282      8281      8293
      8284      8282      8297      8298      8284      8282      8297      8299
      8284      8282      8297      8303      8285      8281      8282      8297
      8285      8281      8289      8290      8285      8281      8289      8291
      8285      8281      8289      8292      8285      8281      8293      8294
      8285      8281      8293      8295      8285      8281      8293      8296
      8286      8285      8281      8289      8286      8285      8281      8293
      8287      8285      8281      8289      8287      8285      8281      8293
      8288      8285      8281      8289      8288      8285      8281      8293
      8289      8281      8282      8297      8289      8281      8293      8294
      8289      8281      8293      8295      8289      8281      8293      8296
      8290      8289      8281      8293      8291      8289      8281      8293
      8292      8289      8281      8293      8293      8281      8282      8297
      8297      8303      8300      8301      8297      8303      8300      8302
      8297      8303      8300      8304      8298      8297      8303      8300
      8299      8297      8303      8300      8300      8304      8305      8306
      8300      8304      8305      8307      8300      8304      8305      8308
      8301      8300      8304      8305      8302      8300      8304      8305
      8303      8300      8304      8305      8304      8305      8308      8309
      8304      8305      8308      8310      8304      8305      8308      8316
      8305      8308      8310      8311      8305      8308      8316      8317
      8305      8308      8316      8318      8305      8308      8316      8319
      8306      8305      8308      8309      8306      8305      8308      8310
      8306      8305      8308      8316      8307      8305      8308      8309
      8307      8305      8308      8310      8307      8305      8308      8316
      8308      8310      8311      8312      8308      8310      8311      8313
      8308      8316      8319      8320      8309      8308      8310      8311
      8309      8308      8316      8317      8309      8308      8316      8318
      8309      8308      8316      8319      8310      8308      8316      8317
      8310      8308      8316      8318      8310      8308      8316      8319
      8310      8311      8313      8314      8310      8311      8313      8315
      8310      8311      8313      8325      8311      8310      8308      8316
      8311      8313      8325      8326      8311      8313      8325      8327
      8311      8313      8325      8328      8312      8311      8313      8314
      8312      8311      8313      8315      8312      8311      8313      8325
      8313      8325      8328      8329      8313      8325      8328      8330
      8313      8325      8328      8331      8314      8313      8325      8326
      8314      8313      8325      8327      8314      8313      8325      8328
      8315      8313      8325      8326      8315      8313      8325      8327
      8315      8313      8325      8328      8316      8319      8320      8321
      8316      8319      8320      8322      8317      8316      8319      8320
      8318      8316      8319      8320      8319      8320      8322      8323
      8319      8320      8322      8324      8319      8320      8322      8372
      8320      8322      8372      8373      8320      8322      8372      8374
      8320      8322      8372      8375      8321      8320      8322      8323
      8321      8320      8322      8324      8321      8320      8322      8372
      8322      8372      8375      8376      8322      8372      8375      8377
      8322      8372      8375      8378      8323      8322      8372      8373
      8323      8322      8372      8374      8323      8322      8372      8375
      8324      8322      8372      8373      8324      8322      8372      8374
      8324      8322      8372      8375      8325      8328      8331      8332
      8325      8328      8331      8333      8325      8328      8331      8334
      8326      8325      8328      8329      8326      8325      8328      8330
      8326      8325      8328      8331      8327      8325      8328      8329
      8327      8325      8328      8330      8327      8325      8328      8331
      8328      8331      8334      8335      8328      8331      8334      8336
      8328      8331      8334      8337      8329      8328      8331      8332
      8329      8328      8331      8333      8329      8328      8331      8334
      8330      8328      8331      8332      8330      8328      8331      8333
      8330      8328      8331      8334      8331      8334      8337      8338
      8331      8334      8337      8339      8331      8334      8337      8340
      8332      8331      8334      8335      8332      8331      8334      8336
      8332      8331      8334      8337      8333      8331      8334      8335
      8333      8331      8334      8336      8333      8331      8334      8337
      8334      8337      8340      8341      8334      8337      8340      8342
      8334      8337      8340      8343      8335      8334      8337      8338
      8335      8334      8337      8339      8335      8334      8337      8340
      8336      8334      8337      8338      8336      8334      8337      8339
      8336      8334      8337      8340      8337      8340      8343      8344
      8337      8340      8343      8345      8338      8337      8340      8341
      8338      8337      8340      8342      8338      8337      8340      8343
      8339      8337      8340      8341      8339      8337      8340      8342
      8339      8337      8340      8343      8340      8343      8345      8346
      8340      8343      8345      8347      8341      8340      8343      8344
      8341      8340      8343      8345      8342      8340      8343      8344
      8342      8340      8343      8345      8343      8345      8347      8348
      8343      8345      8347      8349      8343      8345      8347      8350
      8344      8343      8345      8346      8344      8343      8345      8347
      8345      8347      8350      8351      8345      8347      8350      8352
      8345      8347      8350      8353      8346      8345      8347      8348
      8346      8345      8347      8349      8346      8345      8347      8350
      8347      8350      8353      8354      8347      8350      8353      8355
      8347      8350      8353      8356      8348      8347      8350      8351
      8348      8347      8350      8352      8348      8347      8350      8353
      8349      8347      8350      8351      8349      8347      8350      8352
      8349      8347      8350      8353      8350      8353      8356      8357
      8350      8353      8356      8358      8350      8353      8356      8359
      8351      8350      8353      8354      8351      8350      8353      8355
      8351      8350      8353      8356      8352      8350      8353      8354
      8352      8350      8353      8355      8352      8350      8353      8356
      8353      8356      8359      8360      8353      8356      8359      8361
      8353      8356      8359      8362      8354      8353      8356      8357
      8354      8353      8356      8358      8354      8353      8356      8359
      8355      8353      8356      8357      8355      8353      8356      8358
      8355      8353      8356      8359      8356      8359      8362      8363
      8356      8359      8362      8364      8356      8359      8362      8365
      8357      8356      8359      8360      8357      8356      8359      8361
      8357      8356      8359      8362      8358      8356      8359      8360
      8358      8356      8359      8361      8358      8356      8359      8362
      8359      8362      8365      8366      8359      8362      8365      8367
      8359      8362      8365      8368      8360      8359      8362      8363
      8360      8359      8362      8364      8360      8359      8362      8365
      8361      8359      8362      8363      8361      8359      8362      8364
      8361      8359      8362      8365      8362      8365      8368      8369
      8362      8365      8368      8370      8362      8365      8368      8371
      8363      8362      8365      8366      8363      8362      8365      8367
      8363      8362      8365      8368      8364      8362      8365      8366
      8364      8362      8365      8367      8364      8362      8365      8368
      8366      8365      8368      8369      8366      8365      8368      8370
      8366      8365      8368      8371      8367      8365      8368      8369
      8367      8365      8368      8370      8367      8365      8368      8371
      8372      8375      8378      8379      8372      8375      8378      8380
      8372      8375      8378      8381      8373      8372      8375      8376
      8373      8372      8375      8377      8373      8372      8375      8378
      8374      8372      8375      8376      8374      8372      8375      8377
      8374      8372      8375      8378      8375      8378      8381      8382
      8375      8378      8381      8383      8375      8378      8381      8384
      8376      8375      8378      8379      8376      8375      8378      8380
      8376      8375      8378      8381      8377      8375      8378      8379
      8377      8375      8378      8380      8377      8375      8378      8381
      8378      8381      8384      8385      8378      8381      8384      8386
      8378      8381      8384      8387      8379      8378      8381      8382
      8379      8378      8381      8383      8379      8378      8381      8384
      8380      8378      8381      8382      8380      8378      8381      8383
      8380      8378      8381      8384      8381      8384      8387      8388
      8381      8384      8387      8389      8381      8384      8387      8390
      8382      8381      8384      8385      8382      8381      8384      8386
      8382      8381      8384      8387      8383      8381      8384      8385
      8383      8381      8384      8386      8383      8381      8384      8387
      8384      8387      8390      8391      8384      8387      8390      8392
      8385      8384      8387      8388      8385      8384      8387      8389
      8385      8384      8387      8390      8386      8384      8387      8388
      8386      8384      8387      8389      8386      8384      8387      8390
      8387      8390      8392      8393      8387      8390      8392      8394
      8388      8387      8390      8391      8388      8387      8390      8392
      8389      8387      8390      8391      8389      8387      8390      8392
      8390      8392      8394      8395      8390      8392      8394      8396
      8390      8392      8394      8397      8391      8390      8392      8393
      8391      8390      8392      8394      8392      8394      8397      8398
      8392      8394      8397      8399      8392      8394      8397      8400
      8393      8392      8394      8395      8393      8392      8394      8396
      8393      8392      8394      8397      8394      8397      8400      8401
      8394      8397      8400      8402      8394      8397      8400      8403
      8395      8394      8397      8398      8395      8394      8397      8399
      8395      8394      8397      8400      8396      8394      8397      8398
      8396      8394      8397      8399      8396      8394      8397      8400
      8397      8400      8403      8404      8397      8400      8403      8405
      8397      8400      8403      8406      8398      8397      8400      8401
      8398      8397      8400      8402      8398      8397      8400      8403
      8399      8397      8400      8401      8399      8397      8400      8402
      8399      8397      8400      8403      8400      8403      8406      8407
      8400      8403      8406      8408      8400      8403      8406      8409
      8401      8400      8403      8404      8401      8400      8403      8405
      8401      8400      8403      8406      8402      8400      8403      8404
      8402      8400      8403      8405      8402      8400      8403      8406
      8403      8406      8409      8410      8403      8406      8409      8411
      8403      8406      8409      8412      8404      8403      8406      8407
      8404      8403      8406      8408      8404      8403      8406      8409
      8405      8403      8406      8407      8405      8403      8406      8408
      8405      8403      8406      8409      8406      8409      8412      8413
      8406      8409      8412      8414      8406      8409      8412      8415
      8407      8406      8409      8410      8407      8406      8409      8411
      8407      8406      8409      8412      8408      8406      8409      8410
      8408      8406      8409      8411      8408      8406      8409      8412
      8409      8412      8415      8416      8409      8412      8415      8417
      8409      8412      8415      8418      8410      8409      8412      8413
      8410      8409      8412      8414      8410      8409      8412      8415
      8411      8409      8412      8413      8411      8409      8412      8414
      8411      8409      8412      8415      8413      8412      8415      8416
      8413      8412      8415      8417      8413      8412      8415      8418
      8414      8412      8415      8416      8414      8412      8415      8417
      8414      8412      8415      8418      8419      8420      8435      8436
      8419      8420      8435      8437      8419      8420      8435      8441
      8420      8419      8423      8424      8420      8419      8423      8425
      8420      8419      8423      8426      8420      8419      8427      8428
      8420      8419      8427      8429      8420      8419      8427      8430
      8420      8419      8431      8432      8420      8419      8431      8433
      8420      8419      8431      8434      8420      8435      8441      8438
      8421      8420      8419      8423      8421      8420      8419      8427
      8421      8420      8419      8431      8421      8420      8435      8436
      8421      8420      8435      8437      8421      8420      8435      8441
      8422      8420      8419      8423      8422      8420      8419      8427
      8422      8420      8419      8431      8422      8420      8435      8436
      8422      8420      8435      8437      8422      8420      8435      8441
      8423      8419      8420      8435      8423      8419      8427      8428
      8423      8419      8427      8429      8423      8419      8427      8430
      8423      8419      8431      8432      8423      8419      8431      8433
      8423      8419      8431      8434      8424      8423      8419      8427
      8424      8423      8419      8431      8425      8423      8419      8427
      8425      8423      8419      8431      8426      8423      8419      8427
      8426      8423      8419      8431      8427      8419      8420      8435
      8427      8419      8431      8432      8427      8419      8431      8433
      8427      8419      8431      8434      8428      8427      8419      8431
      8429      8427      8419      8431      8430      8427      8419      8431
      8431      8419      8420      8435      8435      8441      8438      8439
      8435      8441      8438      8440      8435      8441      8438      8442
      8436      8435      8441      8438      8437      8435      8441      8438
      8438      8442      8443      8444      8438      8442      8443      8445
      8438      8442      8443      8446      8439      8438      8442      8443
      8440      8438      8442      8443      8441      8438      8442      8443
      8442      8443      8446      8447      8442      8443      8446      8448
      8442      8443      8446      8454      8443      8446      8448      8449
      8443      8446      8454      8455      8443      8446      8454      8456
      8443      8446      8454      8457      8444      8443      8446      8447
      8444      8443      8446      8448      8444      8443      8446      8454
      8445      8443      8446      8447      8445      8443      8446      8448
      8445      8443      8446      8454      8446      8448      8449      8450
      8446      8448      8449      8451      8446      8454      8457      8458
      8447      8446      8448      8449      8447      8446      8454      8455
      8447      8446      8454      8456      8447      8446      8454      8457
      8448      8446      8454      8455      8448      8446      8454      8456
      8448      8446      8454      8457      8448      8449      8451      8452
      8448      8449      8451      8453      8448      8449      8451      8463
      8449      8448      8446      8454      8449      8451      8463      8464
      8449      8451      8463      8465      8449      8451      8463      8466
      8450      8449      8451      8452      8450      8449      8451      8453
      8450      8449      8451      8463      8451      8463      8466      8467
      8451      8463      8466      8468      8451      8463      8466      8469
      8452      8451      8463      8464      8452      8451      8463      8465
      8452      8451      8463      8466      8453      8451      8463      8464
      8453      8451      8463      8465      8453      8451      8463      8466
      8454      8457      8458      8459      8454      8457      8458      8460
      8455      8454      8457      8458      8456      8454      8457      8458
      8457      8458      8460      8461      8457      8458      8460      8462
      8457      8458      8460      8510      8458      8460      8510      8511
      8458      8460      8510      8512      8458      8460      8510      8513
      8459      8458      8460      8461      8459      8458      8460      8462
      8459      8458      8460      8510      8460      8510      8513      8514
      8460      8510      8513      8515      8460      8510      8513      8516
      8461      8460      8510      8511      8461      8460      8510      8512
      8461      8460      8510      8513      8462      8460      8510      8511
      8462      8460      8510      8512      8462      8460      8510      8513
      8463      8466      8469      8470      8463      8466      8469      8471
      8463      8466      8469      8472      8464      8463      8466      8467
      8464      8463      8466      8468      8464      8463      8466      8469
      8465      8463      8466      8467      8465      8463      8466      8468
      8465      8463      8466      8469      8466      8469      8472      8473
      8466      8469      8472      8474      8466      8469      8472      8475
      8467      8466      8469      8470      8467      8466      8469      8471
      8467      8466      8469      8472      8468      8466      8469      8470
      8468      8466      8469      8471      8468      8466      8469      8472
      8469      8472      8475      8476      8469      8472      8475      8477
      8469      8472      8475      8478      8470      8469      8472      8473
      8470      8469      8472      8474      8470      8469      8472      8475
      8471      8469      8472      8473      8471      8469      8472      8474
      8471      8469      8472      8475      8472      8475      8478      8479
      8472      8475      8478      8480      8472      8475      8478      8481
      8473      8472      8475      8476      8473      8472      8475      8477
      8473      8472      8475      8478      8474      8472      8475      8476
      8474      8472      8475      8477      8474      8472      8475      8478
      8475      8478      8481      8482      8475      8478      8481      8483
      8476      8475      8478      8479      8476      8475      8478      8480
      8476      8475      8478      8481      8477      8475      8478      8479
      8477      8475      8478      8480      8477      8475      8478      8481
      8478      8481      8483      8484      8478      8481      8483      8485
      8479      8478      8481      8482      8479      8478      8481      8483
      8480      8478      8481      8482      8480      8478      8481      8483
      8481      8483      8485      8486      8481      8483      8485      8487
      8481      8483      8485      8488      8482      8481      8483      8484
      8482      8481      8483      8485      8483      8485      8488      8489
      8483      8485      8488      8490      8483      8485      8488      8491
      8484      8483      8485      8486      8484      8483      8485      8487
      8484      8483      8485      8488      8485      8488      8491      8492
      8485      8488      8491      8493      8485      8488      8491      8494
      8486      8485      8488      8489      8486      8485      8488      8490
      8486      8485      8488      8491      8487      8485      8488      8489
      8487      8485      8488      8490      8487      8485      8488      8491
      8488      8491      8494      8495      8488      8491      8494      8496
      8488      8491      8494      8497      8489      8488      8491      8492
      8489      8488      8491      8493      8489      8488      8491      8494
      8490      8488      8491      8492      8490      8488      8491      8493
      8490      8488      8491      8494      8491      8494      8497      8498
      8491      8494      8497      8499      8491      8494      8497      8500
      8492      8491      8494      8495      8492      8491      8494      8496
      8492      8491      8494      8497      8493      8491      8494      8495
      8493      8491      8494      8496      8493      8491      8494      8497
      8494      8497      8500      8501      8494      8497      8500      8502
      8494      8497      8500      8503      8495      8494      8497      8498
      8495      8494      8497      8499      8495      8494      8497      8500
      8496      8494      8497      8498      8496      8494      8497      8499
      8496      8494      8497      8500      8497      8500      8503      8504
      8497      8500      8503      8505      8497      8500      8503      8506
      8498      8497      8500      8501      8498      8497      8500      8502
      8498      8497      8500      8503      8499      8497      8500      8501
      8499      8497      8500      8502      8499      8497      8500      8503
      8500      8503      8506      8507      8500      8503      8506      8508
      8500      8503      8506      8509      8501      8500      8503      8504
      8501      8500      8503      8505      8501      8500      8503      8506
      8502      8500      8503      8504      8502      8500      8503      8505
      8502      8500      8503      8506      8504      8503      8506      8507
      8504      8503      8506      8508      8504      8503      8506      8509
      8505      8503      8506      8507      8505      8503      8506      8508
      8505      8503      8506      8509      8510      8513      8516      8517
      8510      8513      8516      8518      8510      8513      8516      8519
      8511      8510      8513      8514      8511      8510      8513      8515
      8511      8510      8513      8516      8512      8510      8513      8514
      8512      8510      8513      8515      8512      8510      8513      8516
      8513      8516      8519      8520      8513      8516      8519      8521
      8513      8516      8519      8522      8514      8513      8516      8517
      8514      8513      8516      8518      8514      8513      8516      8519
      8515      8513      8516      8517      8515      8513      8516      8518
      8515      8513      8516      8519      8516      8519      8522      8523
      8516      8519      8522      8524      8516      8519      8522      8525
      8517      8516      8519      8520      8517      8516      8519      8521
      8517      8516      8519      8522      8518      8516      8519      8520
      8518      8516      8519      8521      8518      8516      8519      8522
      8519      8522      8525      8526      8519      8522      8525      8527
      8519      8522      8525      8528      8520      8519      8522      8523
      8520      8519      8522      8524      8520      8519      8522      8525
      8521      8519      8522      8523      8521      8519      8522      8524
      8521      8519      8522      8525      8522      8525      8528      8529
      8522      8525      8528      8530      8523      8522      8525      8526
      8523      8522      8525      8527      8523      8522      8525      8528
      8524      8522      8525      8526      8524      8522      8525      8527
      8524      8522      8525      8528      8525      8528      8530      8531
      8525      8528      8530      8532      8526      8525      8528      8529
      8526      8525      8528      8530      8527      8525      8528      8529
      8527      8525      8528      8530      8528      8530      8532      8533
      8528      8530      8532      8534      8528      8530      8532      8535
      8529      8528      8530      8531      8529      8528      8530      8532
      8530      8532      8535      8536      8530      8532      8535      8537
      8530      8532      8535      8538      8531      8530      8532      8533
      8531      8530      8532      8534      8531      8530      8532      8535
      8532      8535      8538      8539      8532      8535      8538      8540
      8532      8535      8538      8541      8533      8532      8535      8536
      8533      8532      8535      8537      8533      8532      8535      8538
      8534      8532      8535      8536      8534      8532      8535      8537
      8534      8532      8535      8538      8535      8538      8541      8542
      8535      8538      8541      8543      8535      8538      8541      8544
      8536      8535      8538      8539      8536      8535      8538      8540
      8536      8535      8538      8541      8537      8535      8538      8539
      8537      8535      8538      8540      8537      8535      8538      8541
      8538      8541      8544      8545      8538      8541      8544      8546
      8538      8541      8544      8547      8539      8538      8541      8542
      8539      8538      8541      8543      8539      8538      8541      8544
      8540      8538      8541      8542      8540      8538      8541      8543
      8540      8538      8541      8544      8541      8544      8547      8548
      8541      8544      8547      8549      8541      8544      8547      8550
      8542      8541      8544      8545      8542      8541      8544      8546
      8542      8541      8544      8547      8543      8541      8544      8545
      8543      8541      8544      8546      8543      8541      8544      8547
      8544      8547      8550      8551      8544      8547      8550      8552
      8544      8547      8550      8553      8545      8544      8547      8548
      8545      8544      8547      8549      8545      8544      8547      8550
      8546      8544      8547      8548      8546      8544      8547      8549
      8546      8544      8547      8550      8547      8550      8553      8554
      8547      8550      8553      8555      8547      8550      8553      8556
      8548      8547      8550      8551      8548      8547      8550      8552
      8548      8547      8550      8553      8549      8547      8550      8551
      8549      8547      8550      8552      8549      8547      8550      8553
      8551      8550      8553      8554      8551      8550      8553      8555
      8551      8550      8553      8556      8552      8550      8553      8554
      8552      8550      8553      8555      8552      8550      8553      8556
      8557      8558      8573      8574      8557      8558      8573      8575
      8557      8558      8573      8579      8558      8557      8561      8562
      8558      8557      8561      8563      8558      8557      8561      8564
      8558      8557      8565      8566      8558      8557      8565      8567
      8558      8557      8565      8568      8558      8557      8569      8570
      8558      8557      8569      8571      8558      8557      8569      8572
      8558      8573      8579      8576      8559      8558      8557      8561
      8559      8558      8557      8565      8559      8558      8557      8569
      8559      8558      8573      8574      8559      8558      8573      8575
      8559      8558      8573      8579      8560      8558      8557      8561
      8560      8558      8557      8565      8560      8558      8557      8569
      8560      8558      8573      8574      8560      8558      8573      8575
      8560      8558      8573      8579      8561      8557      8558      8573
      8561      8557      8565      8566      8561      8557      8565      8567
      8561      8557      8565      8568      8561      8557      8569      8570
      8561      8557      8569      8571      8561      8557      8569      8572
      8562      8561      8557      8565      8562      8561      8557      8569
      8563      8561      8557      8565      8563      8561      8557      8569
      8564      8561      8557      8565      8564      8561      8557      8569
      8565      8557      8558      8573      8565      8557      8569      8570
      8565      8557      8569      8571      8565      8557      8569      8572
      8566      8565      8557      8569      8567      8565      8557      8569
      8568      8565      8557      8569      8569      8557      8558      8573
      8573      8579      8576      8577      8573      8579      8576      8578
      8573      8579      8576      8580      8574      8573      8579      8576
      8575      8573      8579      8576      8576      8580      8581      8582
      8576      8580      8581      8583      8576      8580      8581      8584
      8577      8576      8580      8581      8578      8576      8580      8581
      8579      8576      8580      8581      8580      8581      8584      8585
      8580      8581      8584      8586      8580      8581      8584      8592
      8581      8584      8586      8587      8581      8584      8592      8593
      8581      8584      8592      8594      8581      8584      8592      8595
      8582      8581      8584      8585      8582      8581      8584      8586
      8582      8581      8584      8592      8583      8581      8584      8585
      8583      8581      8584      8586      8583      8581      8584      8592
      8584      8586      8587      8588      8584      8586      8587      8589
      8584      8592      8595      8596      8585      8584      8586      8587
      8585      8584      8592      8593      8585      8584      8592      8594
      8585      8584      8592      8595      8586      8584      8592      8593
      8586      8584      8592      8594      8586      8584      8592      8595
      8586      8587      8589      8590      8586      8587      8589      8591
      8586      8587      8589      8601      8587      8586      8584      8592
      8587      8589      8601      8602      8587      8589      8601      8603
      8587      8589      8601      8604      8588      8587      8589      8590
      8588      8587      8589      8591      8588      8587      8589      8601
      8589      8601      8604      8605      8589      8601      8604      8606
      8589      8601      8604      8607      8590      8589      8601      8602
      8590      8589      8601      8603      8590      8589      8601      8604
      8591      8589      8601      8602      8591      8589      8601      8603
      8591      8589      8601      8604      8592      8595      8596      8597
      8592      8595      8596      8598      8593      8592      8595      8596
      8594      8592      8595      8596      8595      8596      8598      8599
      8595      8596      8598      8600      8595      8596      8598      8648
      8596      8598      8648      8649      8596      8598      8648      8650
      8596      8598      8648      8651      8597      8596      8598      8599
      8597      8596      8598      8600      8597      8596      8598      8648
      8598      8648      8651      8652      8598      8648      8651      8653
      8598      8648      8651      8654      8599      8598      8648      8649
      8599      8598      8648      8650      8599      8598      8648      8651
      8600      8598      8648      8649      8600      8598      8648      8650
      8600      8598      8648      8651      8601      8604      8607      8608
      8601      8604      8607      8609      8601      8604      8607      8610
      8602      8601      8604      8605      8602      8601      8604      8606
      8602      8601      8604      8607      8603      8601      8604      8605
      8603      8601      8604      8606      8603      8601      8604      8607
      8604      8607      8610      8611      8604      8607      8610      8612
      8604      8607      8610      8613      8605      8604      8607      8608
      8605      8604      8607      8609      8605      8604      8607      8610
      8606      8604      8607      8608      8606      8604      8607      8609
      8606      8604      8607      8610      8607      8610      8613      8614
      8607      8610      8613      8615      8607      8610      8613      8616
      8608      8607      8610      8611      8608      8607      8610      8612
      8608      8607      8610      8613      8609      8607      8610      8611
      8609      8607      8610      8612      8609      8607      8610      8613
      8610      8613      8616      8617      8610      8613      8616      8618
      8610      8613      8616      8619      8611      8610      8613      8614
      8611      8610      8613      8615      8611      8610      8613      8616
      8612      8610      8613      8614      8612      8610      8613      8615
      8612      8610      8613      8616      8613      8616      8619      8620
      8613      8616      8619      8621      8614      8613      8616      8617
      8614      8613      8616      8618      8614      8613      8616      8619
      8615      8613      8616      8617      8615      8613      8616      8618
      8615      8613      8616      8619      8616      8619      8621      8622
      8616      8619      8621      8623      8617      8616      8619      8620
      8617      8616      8619      8621      8618      8616      8619      8620
      8618      8616      8619      8621      8619      8621      8623      8624
      8619      8621      8623      8625      8619      8621      8623      8626
      8620      8619      8621      8622      8620      8619      8621      8623
      8621      8623      8626      8627      8621      8623      8626      8628
      8621      8623      8626      8629      8622      8621      8623      8624
      8622      8621      8623      8625      8622      8621      8623      8626
      8623      8626      8629      8630      8623      8626      8629      8631
      8623      8626      8629      8632      8624      8623      8626      8627
      8624      8623      8626      8628      8624      8623      8626      8629
      8625      8623      8626      8627      8625      8623      8626      8628
      8625      8623      8626      8629      8626      8629      8632      8633
      8626      8629      8632      8634      8626      8629      8632      8635
      8627      8626      8629      8630      8627      8626      8629      8631
      8627      8626      8629      8632      8628      8626      8629      8630
      8628      8626      8629      8631      8628      8626      8629      8632
      8629      8632      8635      8636      8629      8632      8635      8637
      8629      8632      8635      8638      8630      8629      8632      8633
      8630      8629      8632      8634      8630      8629      8632      8635
      8631      8629      8632      8633      8631      8629      8632      8634
      8631      8629      8632      8635      8632      8635      8638      8639
      8632      8635      8638      8640      8632      8635      8638      8641
      8633      8632      8635      8636      8633      8632      8635      8637
      8633      8632      8635      8638      8634      8632      8635      8636
      8634      8632      8635      8637      8634      8632      8635      8638
      8635      8638      8641      8642      8635      8638      8641      8643
      8635      8638      8641      8644      8636      8635      8638      8639
      8636      8635      8638      8640      8636      8635      8638      8641
      8637      8635      8638      8639      8637      8635      8638      8640
      8637      8635      8638      8641      8638      8641      8644      8645
      8638      8641      8644      8646      8638      8641      8644      8647
      8639      8638      8641      8642      8639      8638      8641      8643
      8639      8638      8641      8644      8640      8638      8641      8642
      8640      8638      8641      8643      8640      8638      8641      8644
      8642      8641      8644      8645      8642      8641      8644      8646
      8642      8641      8644      8647      8643      8641      8644      8645
      8643      8641      8644      8646      8643      8641      8644      8647
      8648      8651      8654      8655      8648      8651      8654      8656
      8648      8651      8654      8657      8649      8648      8651      8652
      8649      8648      8651      8653      8649      8648      8651      8654
      8650      8648      8651      8652      8650      8648      8651      8653
      8650      8648      8651      8654      8651      8654      8657      8658
      8651      8654      8657      8659      8651      8654      8657      8660
      8652      8651      8654      8655      8652      8651      8654      8656
      8652      8651      8654      8657      8653      8651      8654      8655
      8653      8651      8654      8656      8653      8651      8654      8657
      8654      8657      8660      8661      8654      8657      8660      8662
      8654      8657      8660      8663      8655      8654      8657      8658
      8655      8654      8657      8659      8655      8654      8657      8660
      8656      8654      8657      8658      8656      8654      8657      8659
      8656      8654      8657      8660      8657      8660      8663      8664
      8657      8660      8663      8665      8657      8660      8663      8666
      8658      8657      8660      8661      8658      8657      8660      8662
      8658      8657      8660      8663      8659      8657      8660      8661
      8659      8657      8660      8662      8659      8657      8660      8663
      8660      8663      8666      8667      8660      8663      8666      8668
      8661      8660      8663      8664      8661      8660      8663      8665
      8661      8660      8663      8666      8662      8660      8663      8664
      8662      8660      8663      8665      8662      8660      8663      8666
      8663      8666      8668      8669      8663      8666      8668      8670
      8664      8663      8666      8667      8664      8663      8666      8668
      8665      8663      8666      8667      8665      8663      8666      8668
      8666      8668      8670      8671      8666      8668      8670      8672
      8666      8668      8670      8673      8667      8666      8668      8669
      8667      8666      8668      8670      8668      8670      8673      8674
      8668      8670      8673      8675      8668      8670      8673      8676
      8669      8668      8670      8671      8669      8668      8670      8672
      8669      8668      8670      8673      8670      8673      8676      8677
      8670      8673      8676      8678      8670      8673      8676      8679
      8671      8670      8673      8674      8671      8670      8673      8675
      8671      8670      8673      8676      8672      8670      8673      8674
      8672      8670      8673      8675      8672      8670      8673      8676
      8673      8676      8679      8680      8673      8676      8679      8681
      8673      8676      8679      8682      8674      8673      8676      8677
      8674      8673      8676      8678      8674      8673      8676      8679
      8675      8673      8676      8677      8675      8673      8676      8678
      8675      8673      8676      8679      8676      8679      8682      8683
      8676      8679      8682      8684      8676      8679      8682      8685
      8677      8676      8679      8680      8677      8676      8679      8681
      8677      8676      8679      8682      8678      8676      8679      8680
      8678      8676      8679      8681      8678      8676      8679      8682
      8679      8682      8685      8686      8679      8682      8685      8687
      8679      8682      8685      8688      8680      8679      8682      8683
      8680      8679      8682      8684      8680      8679      8682      8685
      8681      8679      8682      8683      8681      8679      8682      8684
      8681      8679      8682      8685      8682      8685      8688      8689
      8682      8685      8688      8690      8682      8685      8688      8691
      8683      8682      8685      8686      8683      8682      8685      8687
      8683      8682      8685      8688      8684      8682      8685      8686
      8684      8682      8685      8687      8684      8682      8685      8688
      8685      8688      8691      8692      8685      8688      8691      8693
      8685      8688      8691      8694      8686      8685      8688      8689
      8686      8685      8688      8690      8686      8685      8688      8691
      8687      8685      8688      8689      8687      8685      8688      8690
      8687      8685      8688      8691      8689      8688      8691      8692
      8689      8688      8691      8693      8689      8688      8691      8694
      8690      8688      8691      8692      8690      8688      8691      8693
      8690      8688      8691      8694      8695      8696      8711      8712
      8695      8696      8711      8713      8695      8696      8711      8717
      8696      8695      8699      8700      8696      8695      8699      8701
      8696      8695      8699      8702      8696      8695      8703      8704
      8696      8695      8703      8705      8696      8695      8703      8706
      8696      8695      8707      8708      8696      8695      8707      8709
      8696      8695      8707      8710      8696      8711      8717      8714
      8697      8696      8695      8699      8697      8696      8695      8703
      8697      8696      8695      8707      8697      8696      8711      8712
      8697      8696      8711      8713      8697      8696      8711      8717
      8698      8696      8695      8699      8698      8696      8695      8703
      8698      8696      8695      8707      8698      8696      8711      8712
      8698      8696      8711      8713      8698      8696      8711      8717
      8699      8695      8696      8711      8699      8695      8703      8704
      8699      8695      8703      8705      8699      8695      8703      8706
      8699      8695      8707      8708      8699      8695      8707      8709
      8699      8695      8707      8710      8700      8699      8695      8703
      8700      8699      8695      8707      8701      8699      8695      8703
      8701      8699      8695      8707      8702      8699      8695      8703
      8702      8699      8695      8707      8703      8695      8696      8711
      8703      8695      8707      8708      8703      8695      8707      8709
      8703      8695      8707      8710      8704      8703      8695      8707
      8705      8703      8695      8707      8706      8703      8695      8707
      8707      8695      8696      8711      8711      8717      8714      8715
      8711      8717      8714      8716      8711      8717      8714      8718
      8712      8711      8717      8714      8713      8711      8717      8714
      8714      8718      8719      8720      8714      8718      8719      8721
      8714      8718      8719      8722      8715      8714      8718      8719
      8716      8714      8718      8719      8717      8714      8718      8719
      8718      8719      8722      8723      8718      8719      8722      8724
      8718      8719      8722      8730      8719      8722      8724      8725
      8719      8722      8730      8731      8719      8722      8730      8732
      8719      8722      8730      8733      8720      8719      8722      8723
      8720      8719      8722      8724      8720      8719      8722      8730
      8721      8719      8722      8723      8721      8719      8722      8724
      8721      8719      8722      8730      8722      8724      8725      8726
      8722      8724      8725      8727      8722      8730      8733      8734
      8723      8722      8724      8725      8723      8722      8730      8731
      8723      8722      8730      8732      8723      8722      8730      8733
      8724      8722      8730      8731      8724      8722      8730      8732
      8724      8722      8730      8733      8724      8725      8727      8728
      8724      8725      8727      8729      8724      8725      8727      8739
      8725      8724      8722      8730      8725      8727      8739      8740
      8725      8727      8739      8741      8725      8727      8739      8742
      8726      8725      8727      8728      8726      8725      8727      8729
      8726      8725      8727      8739      8727      8739      8742      8743
      8727      8739      8742      8744      8727      8739      8742      8745
      8728      8727      8739      8740      8728      8727      8739      8741
      8728      8727      8739      8742      8729      8727      8739      8740
      8729      8727      8739      8741      8729      8727      8739      8742
      8730      8733      8734      8735      8730      8733      8734      8736
      8731      8730      8733      8734      8732      8730      8733      8734
      8733      8734      8736      8737      8733      8734      8736      8738
      8733      8734      8736      8786      8734      8736      8786      8787
      8734      8736      8786      8788      8734      8736      8786      8789
      8735      8734      8736      8737      8735      8734      8736      8738
      8735      8734      8736      8786      8736      8786      8789      8790
      8736      8786      8789      8791      8736      8786      8789      8792
      8737      8736      8786      8787      8737      8736      8786      8788
      8737      8736      8786      8789      8738      8736      8786      8787
      8738      8736      8786      8788      8738      8736      8786      8789
      8739      8742      8745      8746      8739      8742      8745      8747
      8739      8742      8745      8748      8740      8739      8742      8743
      8740      8739      8742      8744      8740      8739      8742      8745
      8741      8739      8742      8743      8741      8739      8742      8744
      8741      8739      8742      8745      8742      8745      8748      8749
      8742      8745      8748      8750      8742      8745      8748      8751
      8743      8742      8745      8746      8743      8742      8745      8747
      8743      8742      8745      8748      8744      8742      8745      8746
      8744      8742      8745      8747      8744      8742      8745      8748
      8745      8748      8751      8752      8745      8748      8751      8753
      8745      8748      8751      8754      8746      8745      8748      8749
      8746      8745      8748      8750      8746      8745      8748      8751
      8747      8745      8748      8749      8747      8745      8748      8750
      8747      8745      8748      8751      8748      8751      8754      8755
      8748      8751      8754      8756      8748      8751      8754      8757
      8749      8748      8751      8752      8749      8748      8751      8753
      8749      8748      8751      8754      8750      8748      8751      8752
      8750      8748      8751      8753      8750      8748      8751      8754
      8751      8754      8757      8758      8751      8754      8757      8759
      8752      8751      8754      8755      8752      8751      8754      8756
      8752      8751      8754      8757      8753      8751      8754      8755
      8753      8751      8754      8756      8753      8751      8754      8757
      8754      8757      8759      8760      8754      8757      8759      8761
      8755      8754      8757      8758      8755      8754      8757      8759
      8756      8754      8757      8758      8756      8754      8757      8759
      8757      8759      8761      8762      8757      8759      8761      8763
      8757      8759      8761      8764      8758      8757      8759      8760
      8758      8757      8759      8761      8759      8761      8764      8765
      8759      8761      8764      8766      8759      8761      8764      8767
      8760      8759      8761      8762      8760      8759      8761      8763
      8760      8759      8761      8764      8761      8764      8767      8768
      8761      8764      8767      8769      8761      8764      8767      8770
      8762      8761      8764      8765      8762      8761      8764      8766
      8762      8761      8764      8767      8763      8761      8764      8765
      8763      8761      8764      8766      8763      8761      8764      8767
      8764      8767      8770      8771      8764      8767      8770      8772
      8764      8767      8770      8773      8765      8764      8767      8768
      8765      8764      8767      8769      8765      8764      8767      8770
      8766      8764      8767      8768      8766      8764      8767      8769
      8766      8764      8767      8770      8767      8770      8773      8774
      8767      8770      8773      8775      8767      8770      8773      8776
      8768      8767      8770      8771      8768      8767      8770      8772
      8768      8767      8770      8773      8769      8767      8770      8771
      8769      8767      8770      8772      8769      8767      8770      8773
      8770      8773      8776      8777      8770      8773      8776      8778
      8770      8773      8776      8779      8771      8770      8773      8774
      8771      8770      8773      8775      8771      8770      8773      8776
      8772      8770      8773      8774      8772      8770      8773      8775
      8772      8770      8773      8776      8773      8776      8779      8780
      8773      8776      8779      8781      8773      8776      8779      8782
      8774      8773      8776      8777      8774      8773      8776      8778
      8774      8773      8776      8779      8775      8773      8776      8777
      8775      8773      8776      8778      8775      8773      8776      8779
      8776      8779      8782      8783      8776      8779      8782      8784
      8776      8779      8782      8785      8777      8776      8779      8780
      8777      8776      8779      8781      8777      8776      8779      8782
      8778      8776      8779      8780      8778      8776      8779      8781
      8778      8776      8779      8782      8780      8779      8782      8783
      8780      8779      8782      8784      8780      8779      8782      8785
      8781      8779      8782      8783      8781      8779      8782      8784
      8781      8779      8782      8785      8786      8789      8792      8793
      8786      8789      8792      8794      8786      8789      8792      8795
      8787      8786      8789      8790      8787      8786      8789      8791
      8787      8786      8789      8792      8788      8786      8789      8790
      8788      8786      8789      8791      8788      8786      8789      8792
      8789      8792      8795      8796      8789      8792      8795      8797
      8789      8792      8795      8798      8790      8789      8792      8793
      8790      8789      8792      8794      8790      8789      8792      8795
      8791      8789      8792      8793      8791      8789      8792      8794
      8791      8789      8792      8795      8792      8795      8798      8799
      8792      8795      8798      8800      8792      8795      8798      8801
      8793      8792      8795      8796      8793      8792      8795      8797
      8793      8792      8795      8798      8794      8792      8795      8796
      8794      8792      8795      8797      8794      8792      8795      8798
      8795      8798      8801      8802      8795      8798      8801      8803
      8795      8798      8801      8804      8796      8795      8798      8799
      8796      8795      8798      8800      8796      8795      8798      8801
      8797      8795      8798      8799      8797      8795      8798      8800
      8797      8795      8798      8801      8798      8801      8804      8805
      8798      8801      8804      8806      8799      8798      8801      8802
      8799      8798      8801      8803      8799      8798      8801      8804
      8800      8798      8801      8802      8800      8798      8801      8803
      8800      8798      8801      8804      8801      8804      8806      8807
      8801      8804      8806      8808      8802      8801      8804      8805
      8802      8801      8804      8806      8803      8801      8804      8805
      8803      8801      8804      8806      8804      8806      8808      8809
      8804      8806      8808      8810      8804      8806      8808      8811
      8805      8804      8806      8807      8805      8804      8806      8808
      8806      8808      8811      8812      8806      8808      8811      8813
      8806      8808      8811      8814      8807      8806      8808      8809
      8807      8806      8808      8810      8807      8806      8808      8811
      8808      8811      8814      8815      8808      8811      8814      8816
      8808      8811      8814      8817      8809      8808      8811      8812
      8809      8808      8811      8813      8809      8808      8811      8814
      8810      8808      8811      8812      8810      8808      8811      8813
      8810      8808      8811      8814      8811      8814      8817      8818
      8811      8814      8817      8819      8811      8814      8817      8820
      8812      8811      8814      8815      8812      8811      8814      8816
      8812      8811      8814      8817      8813      8811      8814      8815
      8813      8811      8814      8816      8813      8811      8814      8817
      8814      8817      8820      8821      8814      8817      8820      8822
      8814      8817      8820      8823      8815      8814      8817      8818
      8815      8814      8817      8819      8815      8814      8817      8820
      8816      8814      8817      8818      8816      8814      8817      8819
      8816      8814      8817      8820      8817      8820      8823      8824
      8817      8820      8823      8825      8817      8820      8823      8826
      8818      8817      8820      8821      8818      8817      8820      8822
      8818      8817      8820      8823      8819      8817      8820      8821
      8819      8817      8820      8822      8819      8817      8820      8823
      8820      8823      8826      8827      8820      8823      8826      8828
      8820      8823      8826      8829      8821      8820      8823      8824
      8821      8820      8823      8825      8821      8820      8823      8826
      8822      8820      8823      8824      8822      8820      8823      8825
      8822      8820      8823      8826      8823      8826      8829      8830
      8823      8826      8829      8831      8823      8826      8829      8832
      8824      8823      8826      8827      8824      8823      8826      8828
      8824      8823      8826      8829      8825      8823      8826      8827
      8825      8823      8826      8828      8825      8823      8826      8829
      8827      8826      8829      8830      8827      8826      8829      8831
      8827      8826      8829      8832      8828      8826      8829      8830
      8828      8826      8829      8831      8828      8826      8829      8832
      8833      8834      8849      8850      8833      8834      8849      8851
      8833      8834      8849      8855      8834      8833      8837      8838
      8834      8833      8837      8839      8834      8833      8837      8840
      8834      8833      8841      8842      8834      8833      8841      8843
      8834      8833      8841      8844      8834      8833      8845      8846
      8834      8833      8845      8847      8834      8833      8845      8848
      8834      8849      8855      8852      8835      8834      8833      8837
      8835      8834      8833      8841      8835      8834      8833      8845
      8835      8834      8849      8850      8835      8834      8849      8851
      8835      8834      8849      8855      8836      8834      8833      8837
      8836      8834      8833      8841      8836      8834      8833      8845
      8836      8834      8849      8850      8836      8834      8849      8851
      8836      8834      8849      8855      8837      8833      8834      8849
      8837      8833      8841      8842      8837      8833      8841      8843
      8837      8833      8841      8844      8837      8833      8845      8846
      8837      8833      8845      8847      8837      8833      8845      8848
      8838      8837      8833      8841      8838      8837      8833      8845
      8839      8837      8833      8841      8839      8837      8833      8845
      8840      8837      8833      8841      8840      8837      8833      8845
      8841      8833      8834      8849      8841      8833      8845      8846
      8841      8833      8845      8847      8841      8833      8845      8848
      8842      8841      8833      8845      8843      8841      8833      8845
      8844      8841      8833      8845      8845      8833      8834      8849
      8849      8855      8852      8853      8849      8855      8852      8854
      8849      8855      8852      8856      8850      8849      8855      8852
      8851      8849      8855      8852      8852      8856      8857      8858
      8852      8856      8857      8859      8852      8856      8857      8860
      8853      8852      8856      8857      8854      8852      8856      8857
      8855      8852      8856      8857      8856      8857      8860      8861
      8856      8857      8860      8862      8856      8857      8860      8868
      8857      8860      8862      8863      8857      8860      8868      8869
      8857      8860      8868      8870      8857      8860      8868      8871
      8858      8857      8860      8861      8858      8857      8860      8862
      8858      8857      8860      8868      8859      8857      8860      8861
      8859      8857      8860      8862      8859      8857      8860      8868
      8860      8862      8863      8864      8860      8862      8863      8865
      8860      8868      8871      8872      8861      8860      8862      8863
      8861      8860      8868      8869      8861      8860      8868      8870
      8861      8860      8868      8871      8862      8860      8868      8869
      8862      8860      8868      8870      8862      8860      8868      8871
      8862      8863      8865      8866      8862      8863      8865      8867
      8862      8863      8865      8877      8863      8862      8860      8868
      8863      8865      8877      8878      8863      8865      8877      8879
      8863      8865      8877      8880      8864      8863      8865      8866
      8864      8863      8865      8867      8864      8863      8865      8877
      8865      8877      8880      8881      8865      8877      8880      8882
      8865      8877      8880      8883      8866      8865      8877      8878
      8866      8865      8877      8879      8866      8865      8877      8880
      8867      8865      8877      8878      8867      8865      8877      8879
      8867      8865      8877      8880      8868      8871      8872      8873
      8868      8871      8872      8874      8869      8868      8871      8872
      8870      8868      8871      8872      8871      8872      8874      8875
      8871      8872      8874      8876      8871      8872      8874      8924
      8872      8874      8924      8925      8872      8874      8924      8926
      8872      8874      8924      8927      8873      8872      8874      8875
      8873      8872      8874      8876      8873      8872      8874      8924
      8874      8924      8927      8928      8874      8924      8927      8929
      8874      8924      8927      8930      8875      8874      8924      8925
      8875      8874      8924      8926      8875      8874      8924      8927
      8876      8874      8924      8925      8876      8874      8924      8926
      8876      8874      8924      8927      8877      8880      8883      8884
      8877      8880      8883      8885      8877      8880      8883      8886
      8878      8877      8880      8881      8878      8877      8880      8882
      8878      8877      8880      8883      8879      8877      8880      8881
      8879      8877      8880      8882      8879      8877      8880      8883
      8880      8883      8886      8887      8880      8883      8886      8888
      8880      8883      8886      8889      8881      8880      8883      8884
      8881      8880      8883      8885      8881      8880      8883      8886
      8882      8880      8883      8884      8882      8880      8883      8885
      8882      8880      8883      8886      8883      8886      8889      8890
      8883      8886      8889      8891      8883      8886      8889      8892
      8884      8883      8886      8887      8884      8883      8886      8888
      8884      8883      8886      8889      8885      8883      8886      8887
      8885      8883      8886      8888      8885      8883      8886      8889
      8886      8889      8892      8893      8886      8889      8892      8894
      8886      8889      8892      8895      8887      8886      8889      8890
      8887      8886      8889      8891      8887      8886      8889      8892
      8888      8886      8889      8890      8888      8886      8889      8891
      8888      8886      8889      8892      8889      8892      8895      8896
      8889      8892      8895      8897      8890      8889      8892      8893
      8890      8889      8892      8894      8890      8889      8892      8895
      8891      8889      8892      8893      8891      8889      8892      8894
      8891      8889      8892      8895      8892      8895      8897      8898
      8892      8895      8897      8899      8893      8892      8895      8896
      8893      8892      8895      8897      8894      8892      8895      8896
      8894      8892      8895      8897      8895      8897      8899      8900
      8895      8897      8899      8901      8895      8897      8899      8902
      8896      8895      8897      8898      8896      8895      8897      8899
      8897      8899      8902      8903      8897      8899      8902      8904
      8897      8899      8902      8905      8898      8897      8899      8900
      8898      8897      8899      8901      8898      8897      8899      8902
      8899      8902      8905      8906      8899      8902      8905      8907
      8899      8902      8905      8908      8900      8899      8902      8903
      8900      8899      8902      8904      8900      8899      8902      8905
      8901      8899      8902      8903      8901      8899      8902      8904
      8901      8899      8902      8905      8902      8905      8908      8909
      8902      8905      8908      8910      8902      8905      8908      8911
      8903      8902      8905      8906      8903      8902      8905      8907
      8903      8902      8905      8908      8904      8902      8905      8906
      8904      8902      8905      8907      8904      8902      8905      8908
      8905      8908      8911      8912      8905      8908      8911      8913
      8905      8908      8911      8914      8906      8905      8908      8909
      8906      8905      8908      8910      8906      8905      8908      8911
      8907      8905      8908      8909      8907      8905      8908      8910
      8907      8905      8908      8911      8908      8911      8914      8915
      8908      8911      8914      8916      8908      8911      8914      8917
      8909      8908      8911      8912      8909      8908      8911      8913
      8909      8908      8911      8914      8910      8908      8911      8912
      8910      8908      8911      8913      8910      8908      8911      8914
      8911      8914      8917      8918      8911      8914      8917      8919
      8911      8914      8917      8920      8912      8911      8914      8915
      8912      8911      8914      8916      8912      8911      8914      8917
      8913      8911      8914      8915      8913      8911      8914      8916
      8913      8911      8914      8917      8914      8917      8920      8921
      8914      8917      8920      8922      8914      8917      8920      8923
      8915      8914      8917      8918      8915      8914      8917      8919
      8915      8914      8917      8920      8916      8914      8917      8918
      8916      8914      8917      8919      8916      8914      8917      8920
      8918      8917      8920      8921      8918      8917      8920      8922
      8918      8917      8920      8923      8919      8917      8920      8921
      8919      8917      8920      8922      8919      8917      8920      8923
      8924      8927      8930      8931      8924      8927      8930      8932
      8924      8927      8930      8933      8925      8924      8927      8928
      8925      8924      8927      8929      8925      8924      8927      8930
      8926      8924      8927      8928      8926      8924      8927      8929
      8926      8924      8927      8930      8927      8930      8933      8934
      8927      8930      8933      8935      8927      8930      8933      8936
      8928      8927      8930      8931      8928      8927      8930      8932
      8928      8927      8930      8933      8929      8927      8930      8931
      8929      8927      8930      8932      8929      8927      8930      8933
      8930      8933      8936      8937      8930      8933      8936      8938
      8930      8933      8936      8939      8931      8930      8933      8934
      8931      8930      8933      8935      8931      8930      8933      8936
      8932      8930      8933      8934      8932      8930      8933      8935
      8932      8930      8933      8936      8933      8936      8939      8940
      8933      8936      8939      8941      8933      8936      8939      8942
      8934      8933      8936      8937      8934      8933      8936      8938
      8934      8933      8936      8939      8935      8933      8936      8937
      8935      8933      8936      8938      8935      8933      8936      8939
      8936      8939      8942      8943      8936      8939      8942      8944
      8937      8936      8939      8940      8937      8936      8939      8941
      8937      8936      8939      8942      8938      8936      8939      8940
      8938      8936      8939      8941      8938      8936      8939      8942
      8939      8942      8944      8945      8939      8942      8944      8946
      8940      8939      8942      8943      8940      8939      8942      8944
      8941      8939      8942      8943      8941      8939      8942      8944
      8942      8944      8946      8947      8942      8944      8946      8948
      8942      8944      8946      8949      8943      8942      8944      8945
      8943      8942      8944      8946      8944      8946      8949      8950
      8944      8946      8949      8951      8944      8946      8949      8952
      8945      8944      8946      8947      8945      8944      8946      8948
      8945      8944      8946      8949      8946      8949      8952      8953
      8946      8949      8952      8954      8946      8949      8952      8955
      8947      8946      8949      8950      8947      8946      8949      8951
      8947      8946      8949      8952      8948      8946      8949      8950
      8948      8946      8949      8951      8948      8946      8949      8952
      8949      8952      8955      8956      8949      8952      8955      8957
      8949      8952      8955      8958      8950      8949      8952      8953
      8950      8949      8952      8954      8950      8949      8952      8955
      8951      8949      8952      8953      8951      8949      8952      8954
      8951      8949      8952      8955      8952      8955      8958      8959
      8952      8955      8958      8960      8952      8955      8958      8961
      8953      8952      8955      8956      8953      8952      8955      8957
      8953      8952      8955      8958      8954      8952      8955      8956
      8954      8952      8955      8957      8954      8952      8955      8958
      8955      8958      8961      8962      8955      8958      8961      8963
      8955      8958      8961      8964      8956      8955      8958      8959
      8956      8955      8958      8960      8956      8955      8958      8961
      8957      8955      8958      8959      8957      8955      8958      8960
      8957      8955      8958      8961      8958      8961      8964      8965
      8958      8961      8964      8966      8958      8961      8964      8967
      8959      8958      8961      8962      8959      8958      8961      8963
      8959      8958      8961      8964      8960      8958      8961      8962
      8960      8958      8961      8963      8960      8958      8961      8964
      8961      8964      8967      8968      8961      8964      8967      8969
      8961      8964      8967      8970      8962      8961      8964      8965
      8962      8961      8964      8966      8962      8961      8964      8967
      8963      8961      8964      8965      8963      8961      8964      8966
      8963      8961      8964      8967      8965      8964      8967      8968
      8965      8964      8967      8969      8965      8964      8967      8970
      8966      8964      8967      8968      8966      8964      8967      8969
      8966      8964      8967      8970      8971      8972      8987      8988
      8971      8972      8987      8989      8971      8972      8987      8993
      8972      8971      8975      8976      8972      8971      8975      8977
      8972      8971      8975      8978      8972      8971      8979      8980
      8972      8971      8979      8981      8972      8971      8979      8982
      8972      8971      8983      8984      8972      8971      8983      8985
      8972      8971      8983      8986      8972      8987      8993      8990
      8973      8972      8971      8975      8973      8972      8971      8979
      8973      8972      8971      8983      8973      8972      8987      8988
      8973      8972      8987      8989      8973      8972      8987      8993
      8974      8972      8971      8975      8974      8972      8971      8979
      8974      8972      8971      8983      8974      8972      8987      8988
      8974      8972      8987      8989      8974      8972      8987      8993
      8975      8971      8972      8987      8975      8971      8979      8980
      8975      8971      8979      8981      8975      8971      8979      8982
      8975      8971      8983      8984      8975      8971      8983      8985
      8975      8971      8983      8986      8976      8975      8971      8979
      8976      8975      8971      8983      8977      8975      8971      8979
      8977      8975      8971      8983      8978      8975      8971      8979
      8978      8975      8971      8983      8979      8971      8972      8987
      8979      8971      8983      8984      8979      8971      8983      8985
      8979      8971      8983      8986      8980      8979      8971      8983
      8981      8979      8971      8983      8982      8979      8971      8983
      8983      8971      8972      8987      8987      8993      8990      8991
      8987      8993      8990      8992      8987      8993      8990      8994
      8988      8987      8993      8990      8989      8987      8993      8990
      8990      8994      8995      8996      8990      8994      8995      8997
      8990      8994      8995      8998      8991      8990      8994      8995
      8992      8990      8994      8995      8993      8990      8994      8995
      8994      8995      8998      8999      8994      8995      8998      9000
      8994      8995      8998      9006      8995      8998      9000      9001
      8995      8998      9006      9007      8995      8998      9006      9008
      8995      8998      9006      9009      8996      8995      8998      8999
      8996      8995      8998      9000      8996      8995      8998      9006
      8997      8995      8998      8999      8997      8995      8998      9000
      8997      8995      8998      9006      8998      9000      9001      9002
      8998      9000      9001      9003      8998      9006      9009      9010
      8999      8998      9000      9001      8999      8998      9006      9007
      8999      8998      9006      9008      8999      8998      9006      9009
      9000      8998      9006      9007      9000      8998      9006      9008
      9000      8998      9006      9009      9000      9001      9003      9004
      9000      9001      9003      9005      9000      9001      9003      9015
      9001      9000      8998      9006      9001      9003      9015      9016
      9001      9003      9015      9017      9001      9003      9015      9018
      9002      9001      9003      9004      9002      9001      9003      9005
      9002      9001      9003      9015      9003      9015      9018      9019
      9003      9015      9018      9020      9003      9015      9018      9021
      9004      9003      9015      9016      9004      9003      9015      9017
      9004      9003      9015      9018      9005      9003      9015      9016
      9005      9003      9015      9017      9005      9003      9015      9018
      9006      9009      9010      9011      9006      9009      9010      9012
      9007      9006      9009      9010      9008      9006      9009      9010
      9009      9010      9012      9013      9009      9010      9012      9014
      9009      9010      9012      9062      9010      9012      9062      9063
      9010      9012      9062      9064      9010      9012      9062      9065
      9011      9010      9012      9013      9011      9010      9012      9014
      9011      9010      9012      9062      9012      9062      9065      9066
      9012      9062      9065      9067      9012      9062      9065      9068
      9013      9012      9062      9063      9013      9012      9062      9064
      9013      9012      9062      9065      9014      9012      9062      9063
      9014      9012      9062      9064      9014      9012      9062      9065
      9015      9018      9021      9022      9015      9018      9021      9023
      9015      9018      9021      9024      9016      9015      9018      9019
      9016      9015      9018      9020      9016      9015      9018      9021
      9017      9015      9018      9019      9017      9015      9018      9020
      9017      9015      9018      9021      9018      9021      9024      9025
      9018      9021      9024      9026      9018      9021      9024      9027
      9019      9018      9021      9022      9019      9018      9021      9023
      9019      9018      9021      9024      9020      9018      9021      9022
      9020      9018      9021      9023      9020      9018      9021      9024
      9021      9024      9027      9028      9021      9024      9027      9029
      9021      9024      9027      9030      9022      9021      9024      9025
      9022      9021      9024      9026      9022      9021      9024      9027
      9023      9021      9024      9025      9023      9021      9024      9026
      9023      9021      9024      9027      9024      9027      9030      9031
      9024      9027      9030      9032      9024      9027      9030      9033
      9025      9024      9027      9028      9025      9024      9027      9029
      9025      9024      9027      9030      9026      9024      9027      9028
      9026      9024      9027      9029      9026      9024      9027      9030
      9027      9030      9033      9034      9027      9030      9033      9035
      9028      9027      9030      9031      9028      9027      9030      9032
      9028      9027      9030      9033      9029      9027      9030      9031
      9029      9027      9030      9032      9029      9027      9030      9033
      9030      9033      9035      9036      9030      9033      9035      9037
      9031      9030      9033      9034      9031      9030      9033      9035
      9032      9030      9033      9034      9032      9030      9033      9035
      9033      9035      9037      9038      9033      9035      9037      9039
      9033      9035      9037      9040      9034      9033      9035      9036
      9034      9033      9035      9037      9035      9037      9040      9041
      9035      9037      9040      9042      9035      9037      9040      9043
      9036      9035      9037      9038      9036      9035      9037      9039
      9036      9035      9037      9040      9037      9040      9043      9044
      9037      9040      9043      9045      9037      9040      9043      9046
      9038      9037      9040      9041      9038      9037      9040      9042
      9038      9037      9040      9043      9039      9037      9040      9041
      9039      9037      9040      9042      9039      9037      9040      9043
      9040      9043      9046      9047      9040      9043      9046      9048
      9040      9043      9046      9049      9041      9040      9043      9044
      9041      9040      9043      9045      9041      9040      9043      9046
      9042      9040      9043      9044      9042      9040      9043      9045
      9042      9040      9043      9046      9043      9046      9049      9050
      9043      9046      9049      9051      9043      9046      9049      9052
      9044      9043      9046      9047      9044      9043      9046      9048
      9044      9043      9046      9049      9045      9043      9046      9047
      9045      9043      9046      9048      9045      9043      9046      9049
      9046      9049      9052      9053      9046      9049      9052      9054
      9046      9049      9052      9055      9047      9046      9049      9050
      9047      9046      9049      9051      9047      9046      9049      9052
      9048      9046      9049      9050      9048      9046      9049      9051
      9048      9046      9049      9052      9049      9052      9055      9056
      9049      9052      9055      9057      9049      9052      9055      9058
      9050      9049      9052      9053      9050      9049      9052      9054
      9050      9049      9052      9055      9051      9049      9052      9053
      9051      9049      9052      9054      9051      9049      9052      9055
      9052      9055      9058      9059      9052      9055      9058      9060
      9052      9055      9058      9061      9053      9052      9055      9056
      9053      9052      9055      9057      9053      9052      9055      9058
      9054      9052      9055      9056      9054      9052      9055      9057
      9054      9052      9055      9058      9056      9055      9058      9059
      9056      9055      9058      9060      9056      9055      9058      9061
      9057      9055      9058      9059      9057      9055      9058      9060
      9057      9055      9058      9061      9062      9065      9068      9069
      9062      9065      9068      9070      9062      9065      9068      9071
      9063      9062      9065      9066      9063      9062      9065      9067
      9063      9062      9065      9068      9064      9062      9065      9066
      9064      9062      9065      9067      9064      9062      9065      9068
      9065      9068      9071      9072      9065      9068      9071      9073
      9065      9068      9071      9074      9066      9065      9068      9069
      9066      9065      9068      9070      9066      9065      9068      9071
      9067      9065      9068      9069      9067      9065      9068      9070
      9067      9065      9068      9071      9068      9071      9074      9075
      9068      9071      9074      9076      9068      9071      9074      9077
      9069      9068      9071      9072      9069      9068      9071      9073
      9069      9068      9071      9074      9070      9068      9071      9072
      9070      9068      9071      9073      9070      9068      9071      9074
      9071      9074      9077      9078      9071      9074      9077      9079
      9071      9074      9077      9080      9072      9071      9074      9075
      9072      9071      9074      9076      9072      9071      9074      9077
      9073      9071      9074      9075      9073      9071      9074      9076
      9073      9071      9074      9077      9074      9077      9080      9081
      9074      9077      9080      9082      9075      9074      9077      9078
      9075      9074      9077      9079      9075      9074      9077      9080
      9076      9074      9077      9078      9076      9074      9077      9079
      9076      9074      9077      9080      9077      9080      9082      9083
      9077      9080      9082      9084      9078      9077      9080      9081
      9078      9077      9080      9082      9079      9077      9080      9081
      9079      9077      9080      9082      9080      9082      9084      9085
      9080      9082      9084      9086      9080      9082      9084      9087
      9081      9080      9082      9083      9081      9080      9082      9084
      9082      9084      9087      9088      9082      9084      9087      9089
      9082      9084      9087      9090      9083      9082      9084      9085
      9083      9082      9084      9086      9083      9082      9084      9087
      9084      9087      9090      9091      9084      9087      9090      9092
      9084      9087      9090      9093      9085      9084      9087      9088
      9085      9084      9087      9089      9085      9084      9087      9090
      9086      9084      9087      9088      9086      9084      9087      9089
      9086      9084      9087      9090      9087      9090      9093      9094
      9087      9090      9093      9095      9087      9090      9093      9096
      9088      9087      9090      9091      9088      9087      9090      9092
      9088      9087      9090      9093      9089      9087      9090      9091
      9089      9087      9090      9092      9089      9087      9090      9093
      9090      9093      9096      9097      9090      9093      9096      9098
      9090      9093      9096      9099      9091      9090      9093      9094
      9091      9090      9093      9095      9091      9090      9093      9096
      9092      9090      9093      9094      9092      9090      9093      9095
      9092      9090      9093      9096      9093      9096      9099      9100
      9093      9096      9099      9101      9093      9096      9099      9102
      9094      9093      9096      9097      9094      9093      9096      9098
      9094      9093      9096      9099      9095      9093      9096      9097
      9095      9093      9096      9098      9095      9093      9096      9099
      9096      9099      9102      9103      9096      9099      9102      9104
      9096      9099      9102      9105      9097      9096      9099      9100
      9097      9096      9099      9101      9097      9096      9099      9102
      9098      9096      9099      9100      9098      9096      9099      9101
      9098      9096      9099      9102      9099      9102      9105      9106
      9099      9102      9105      9107      9099      9102      9105      9108
      9100      9099      9102      9103      9100      9099      9102      9104
      9100      9099      9102      9105      9101      9099      9102      9103
      9101      9099      9102      9104      9101      9099      9102      9105
      9103      9102      9105      9106      9103      9102      9105      9107
      9103      9102      9105      9108      9104      9102      9105      9106
      9104      9102      9105      9107      9104      9102      9105      9108
      9109      9110      9125      9126      9109      9110      9125      9127
      9109      9110      9125      9131      9110      9109      9113      9114
      9110      9109      9113      9115      9110      9109      9113      9116
      9110      9109      9117      9118      9110      9109      9117      9119
      9110      9109      9117      9120      9110      9109      9121      9122
      9110      9109      9121      9123      9110      9109      9121      9124
      9110      9125      9131      9128      9111      9110      9109      9113
      9111      9110      9109      9117      9111      9110      9109      9121
      9111      9110      9125      9126      9111      9110      9125      9127
      9111      9110      9125      9131      9112      9110      9109      9113
      9112      9110      9109      9117      9112      9110      9109      9121
      9112      9110      9125      9126      9112      9110      9125      9127
      9112      9110      9125      9131      9113      9109      9110      9125
      9113      9109      9117      9118      9113      9109      9117      9119
      9113      9109      9117      9120      9113      9109      9121      9122
      9113      9109      9121      9123      9113      9109      9121      9124
      9114      9113      9109      9117      9114      9113      9109      9121
      9115      9113      9109      9117      9115      9113      9109      9121
      9116      9113      9109      9117      9116      9113      9109      9121
      9117      9109      9110      9125      9117      9109      9121      9122
      9117      9109      9121      9123      9117      9109      9121      9124
      9118      9117      9109      9121      9119      9117      9109      9121
      9120      9117      9109      9121      9121      9109      9110      9125
      9125      9131      9128      9129      9125      9131      9128      9130
      9125      9131      9128      9132      9126      9125      9131      9128
      9127      9125      9131      9128      9128      9132      9133      9134
      9128      9132      9133      9135      9128      9132      9133      9136
      9129      9128      9132      9133      9130      9128      9132      9133
      9131      9128      9132      9133      9132      9133      9136      9137
      9132      9133      9136      9138      9132      9133      9136      9144
      9133      9136      9138      9139      9133      9136      9144      9145
      9133      9136      9144      9146      9133      9136      9144      9147
      9134      9133      9136      9137      9134      9133      9136      9138
      9134      9133      9136      9144      9135      9133      9136      9137
      9135      9133      9136      9138      9135      9133      9136      9144
      9136      9138      9139      9140      9136      9138      9139      9141
      9136      9144      9147      9148      9137      9136      9138      9139
      9137      9136      9144      9145      9137      9136      9144      9146
      9137      9136      9144      9147      9138      9136      9144      9145
      9138      9136      9144      9146      9138      9136      9144      9147
      9138      9139      9141      9142      9138      9139      9141      9143
      9138      9139      9141      9153      9139      9138      9136      9144
      9139      9141      9153      9154      9139      9141      9153      9155
      9139      9141      9153      9156      9140      9139      9141      9142
      9140      9139      9141      9143      9140      9139      9141      9153
      9141      9153      9156      9157      9141      9153      9156      9158
      9141      9153      9156      9159      9142      9141      9153      9154
      9142      9141      9153      9155      9142      9141      9153      9156
      9143      9141      9153      9154      9143      9141      9153      9155
      9143      9141      9153      9156      9144      9147      9148      9149
      9144      9147      9148      9150      9145      9144      9147      9148
      9146      9144      9147      9148      9147      9148      9150      9151
      9147      9148      9150      9152      9147      9148      9150      9200
      9148      9150      9200      9201      9148      9150      9200      9202
      9148      9150      9200      9203      9149      9148      9150      9151
      9149      9148      9150      9152      9149      9148      9150      9200
      9150      9200      9203      9204      9150      9200      9203      9205
      9150      9200      9203      9206      9151      9150      9200      9201
      9151      9150      9200      9202      9151      9150      9200      9203
      9152      9150      9200      9201      9152      9150      9200      9202
      9152      9150      9200      9203      9153      9156      9159      9160
      9153      9156      9159      9161      9153      9156      9159      9162
      9154      9153      9156      9157      9154      9153      9156      9158
      9154      9153      9156      9159      9155      9153      9156      9157
      9155      9153      9156      9158      9155      9153      9156      9159
      9156      9159      9162      9163      9156      9159      9162      9164
      9156      9159      9162      9165      9157      9156      9159      9160
      9157      9156      9159      9161      9157      9156      9159      9162
      9158      9156      9159      9160      9158      9156      9159      9161
      9158      9156      9159      9162      9159      9162      9165      9166
      9159      9162      9165      9167      9159      9162      9165      9168
      9160      9159      9162      9163      9160      9159      9162      9164
      9160      9159      9162      9165      9161      9159      9162      9163
      9161      9159      9162      9164      9161      9159      9162      9165
      9162      9165      9168      9169      9162      9165      9168      9170
      9162      9165      9168      9171      9163      9162      9165      9166
      9163      9162      9165      9167      9163      9162      9165      9168
      9164      9162      9165      9166      9164      9162      9165      9167
      9164      9162      9165      9168      9165      9168      9171      9172
      9165      9168      9171      9173      9166      9165      9168      9169
      9166      9165      9168      9170      9166      9165      9168      9171
      9167      9165      9168      9169      9167      9165      9168      9170
      9167      9165      9168      9171      9168      9171      9173      9174
      9168      9171      9173      9175      9169      9168      9171      9172
      9169      9168      9171      9173      9170      9168      9171      9172
      9170      9168      9171      9173      9171      9173      9175      9176
      9171      9173      9175      9177      9171      9173      9175      9178
      9172      9171      9173      9174      9172      9171      9173      9175
      9173      9175      9178      9179      9173      9175      9178      9180
      9173      9175      9178      9181      9174      9173      9175      9176
      9174      9173      9175      9177      9174      9173      9175      9178
      9175      9178      9181      9182      9175      9178      9181      9183
      9175      9178      9181      9184      9176      9175      9178      9179
      9176      9175      9178      9180      9176      9175      9178      9181
      9177      9175      9178      9179      9177      9175      9178      9180
      9177      9175      9178      9181      9178      9181      9184      9185
      9178      9181      9184      9186      9178      9181      9184      9187
      9179      9178      9181      9182      9179      9178      9181      9183
      9179      9178      9181      9184      9180      9178      9181      9182
      9180      9178      9181      9183      9180      9178      9181      9184
      9181      9184      9187      9188      9181      9184      9187      9189
      9181      9184      9187      9190      9182      9181      9184      9185
      9182      9181      9184      9186      9182      9181      9184      9187
      9183      9181      9184      9185      9183      9181      9184      9186
      9183      9181      9184      9187      9184      9187      9190      9191
      9184      9187      9190      9192      9184      9187      9190      9193
      9185      9184      9187      9188      9185      9184      9187      9189
      9185      9184      9187      9190      9186      9184      9187      9188
      9186      9184      9187      9189      9186      9184      9187      9190
      9187      9190      9193      9194      9187      9190      9193      9195
      9187      9190      9193      9196      9188      9187      9190      9191
      9188      9187      9190      9192      9188      9187      9190      9193
      9189      9187      9190      9191      9189      9187      9190      9192
      9189      9187      9190      9193      9190      9193      9196      9197
      9190      9193      9196      9198      9190      9193      9196      9199
      9191      9190      9193      9194      9191      9190      9193      9195
      9191      9190      9193      9196      9192      9190      9193      9194
      9192      9190      9193      9195      9192      9190      9193      9196
      9194      9193      9196      9197      9194      9193      9196      9198
      9194      9193      9196      9199      9195      9193      9196      9197
      9195      9193      9196      9198      9195      9193      9196      9199
      9200      9203      9206      9207      9200      9203      9206      9208
      9200      9203      9206      9209      9201      9200      9203      9204
      9201      9200      9203      9205      9201      9200      9203      9206
      9202      9200      9203      9204      9202      9200      9203      9205
      9202      9200      9203      9206      9203      9206      9209      9210
      9203      9206      9209      9211      9203      9206      9209      9212
      9204      9203      9206      9207      9204      9203      9206      9208
      9204      9203      9206      9209      9205      9203      9206      9207
      9205      9203      9206      9208      9205      9203      9206      9209
      9206      9209      9212      9213      9206      9209      9212      9214
      9206      9209      9212      9215      9207      9206      9209      9210
      9207      9206      9209      9211      9207      9206      9209      9212
      9208      9206      9209      9210      9208      9206      9209      9211
      9208      9206      9209      9212      9209      9212      9215      9216
      9209      9212      9215      9217      9209      9212      9215      9218
      9210      9209      9212      9213      9210      9209      9212      9214
      9210      9209      9212      9215      9211      9209      9212      9213
      9211      9209      9212      9214      9211      9209      9212      9215
      9212      9215      9218      9219      9212      9215      9218      9220
      9213      9212      9215      9216      9213      9212      9215      9217
      9213      9212      9215      9218      9214      9212      9215      9216
      9214      9212      9215      9217      9214      9212      9215      9218
      9215      9218      9220      9221      9215      9218      9220      9222
      9216      9215      9218      9219      9216      9215      9218      9220
      9217      9215      9218      9219      9217      9215      9218      9220
      9218      9220      9222      9223      9218      9220      9222      9224
      9218      9220      9222      9225      9219      9218      9220      9221
      9219      9218      9220      9222      9220      9222      9225      9226
      9220      9222      9225      9227      9220      9222      9225      9228
      9221      9220      9222      9223      9221      9220      9222      9224
      9221      9220      9222      9225      9222      9225      9228      9229
      9222      9225      9228      9230      9222      9225      9228      9231
      9223      9222      9225      9226      9223      9222      9225      9227
      9223      9222      9225      9228      9224      9222      9225      9226
      9224      9222      9225      9227      9224      9222      9225      9228
      9225      9228      9231      9232      9225      9228      9231      9233
      9225      9228      9231      9234      9226      9225      9228      9229
      9226      9225      9228      9230      9226      9225      9228      9231
      9227      9225      9228      9229      9227      9225      9228      9230
      9227      9225      9228      9231      9228      9231      9234      9235
      9228      9231      9234      9236      9228      9231      9234      9237
      9229      9228      9231      9232      9229      9228      9231      9233
      9229      9228      9231      9234      9230      9228      9231      9232
      9230      9228      9231      9233      9230      9228      9231      9234
      9231      9234      9237      9238      9231      9234      9237      9239
      9231      9234      9237      9240      9232      9231      9234      9235
      9232      9231      9234      9236      9232      9231      9234      9237
      9233      9231      9234      9235      9233      9231      9234      9236
      9233      9231      9234      9237      9234      9237      9240      9241
      9234      9237      9240      9242      9234      9237      9240      9243
      9235      9234      9237      9238      9235      9234      9237      9239
      9235      9234      9237      9240      9236      9234      9237      9238
      9236      9234      9237      9239      9236      9234      9237      9240
      9237      9240      9243      9244      9237      9240      9243      9245
      9237      9240      9243      9246      9238      9237      9240      9241
      9238      9237      9240      9242      9238      9237      9240      9243
      9239      9237      9240      9241      9239      9237      9240      9242
      9239      9237      9240      9243      9241      9240      9243      9244
      9241      9240      9243      9245      9241      9240      9243      9246
      9242      9240      9243      9244      9242      9240      9243      9245
      9242      9240      9243      9246      9247      9248      9263      9264
      9247      9248      9263      9265      9247      9248      9263      9269
      9248      9247      9251      9252      9248      9247      9251      9253
      9248      9247      9251      9254      9248      9247      9255      9256
      9248      9247      9255      9257      9248      9247      9255      9258
      9248      9247      9259      9260      9248      9247      9259      9261
      9248      9247      9259      9262      9248      9263      9269      9266
      9249      9248      9247      9251      9249      9248      9247      9255
      9249      9248      9247      9259      9249      9248      9263      9264
      9249      9248      9263      9265      9249      9248      9263      9269
      9250      9248      9247      9251      9250      9248      9247      9255
      9250      9248      9247      9259      9250      9248      9263      9264
      9250      9248      9263      9265      9250      9248      9263      9269
      9251      9247      9248      9263      9251      9247      9255      9256
      9251      9247      9255      9257      9251      9247      9255      9258
      9251      9247      9259      9260      9251      9247      9259      9261
      9251      9247      9259      9262      9252      9251      9247      9255
      9252      9251      9247      9259      9253      9251      9247      9255
      9253      9251      9247      9259      9254      9251      9247      9255
      9254      9251      9247      9259      9255      9247      9248      9263
      9255      9247      9259      9260      9255      9247      9259      9261
      9255      9247      9259      9262      9256      9255      9247      9259
      9257      9255      9247      9259      9258      9255      9247      9259
      9259      9247      9248      9263      9263      9269      9266      9267
      9263      9269      9266      9268      9263      9269      9266      9270
      9264      9263      9269      9266      9265      9263      9269      9266
      9266      9270      9271      9272      9266      9270      9271      9273
      9266      9270      9271      9274      9267      9266      9270      9271
      9268      9266      9270      9271      9269      9266      9270      9271
      9270      9271      9274      9275      9270      9271      9274      9276
      9270      9271      9274      9282      9271      9274      9276      9277
      9271      9274      9282      9283      9271      9274      9282      9284
      9271      9274      9282      9285      9272      9271      9274      9275
      9272      9271      9274      9276      9272      9271      9274      9282
      9273      9271      9274      9275      9273      9271      9274      9276
      9273      9271      9274      9282      9274      9276      9277      9278
      9274      9276      9277      9279      9274      9282      9285      9286
      9275      9274      9276      9277      9275      9274      9282      9283
      9275      9274      9282      9284      9275      9274      9282      9285
      9276      9274      9282      9283      9276      9274      9282      9284
      9276      9274      9282      9285      9276      9277      9279      9280
      9276      9277      9279      9281      9276      9277      9279      9291
      9277      9276      9274      9282      9277      9279      9291      9292
      9277      9279      9291      9293      9277      9279      9291      9294
      9278      9277      9279      9280      9278      9277      9279      9281
      9278      9277      9279      9291      9279      9291      9294      9295
      9279      9291      9294      9296      9279      9291      9294      9297
      9280      9279      9291      9292      9280      9279      9291      9293
      9280      9279      9291      9294      9281      9279      9291      9292
      9281      9279      9291      9293      9281      9279      9291      9294
      9282      9285      9286      9287      9282      9285      9286      9288
      9283      9282      9285      9286      9284      9282      9285      9286
      9285      9286      9288      9289      9285      9286      9288      9290
      9285      9286      9288      9338      9286      9288      9338      9339
      9286      9288      9338      9340      9286      9288      9338      9341
      9287      9286      9288      9289      9287      9286      9288      9290
      9287      9286      9288      9338      9288      9338      9341      9342
      9288      9338      9341      9343      9288      9338      9341      9344
      9289      9288      9338      9339      9289      9288      9338      9340
      9289      9288      9338      9341      9290      9288      9338      9339
      9290      9288      9338      9340      9290      9288      9338      9341
      9291      9294      9297      9298      9291      9294      9297      9299
      9291      9294      9297      9300      9292      9291      9294      9295
      9292      9291      9294      9296      9292      9291      9294      9297
      9293      9291      9294      9295      9293      9291      9294      9296
      9293      9291      9294      9297      9294      9297      9300      9301
      9294      9297      9300      9302      9294      9297      9300      9303
      9295      9294      9297      9298      9295      9294      9297      9299
      9295      9294      9297      9300      9296      9294      9297      9298
      9296      9294      9297      9299      9296      9294      9297      9300
      9297      9300      9303      9304      9297      9300      9303      9305
      9297      9300      9303      9306      9298      9297      9300      9301
      9298      9297      9300      9302      9298      9297      9300      9303
      9299      9297      9300      9301      9299      9297      9300      9302
      9299      9297      9300      9303      9300      9303      9306      9307
      9300      9303      9306      9308      9300      9303      9306      9309
      9301      9300      9303      9304      9301      9300      9303      9305
      9301      9300      9303      9306      9302      9300      9303      9304
      9302      9300      9303      9305      9302      9300      9303      9306
      9303      9306      9309      9310      9303      9306      9309      9311
      9304      9303      9306      9307      9304      9303      9306      9308
      9304      9303      9306      9309      9305      9303      9306      9307
      9305      9303      9306      9308      9305      9303      9306      9309
      9306      9309      9311      9312      9306      9309      9311      9313
      9307      9306      9309      9310      9307      9306      9309      9311
      9308      9306      9309      9310      9308      9306      9309      9311
      9309      9311      9313      9314      9309      9311      9313      9315
      9309      9311      9313      9316      9310      9309      9311      9312
      9310      9309      9311      9313      9311      9313      9316      9317
      9311      9313      9316      9318      9311      9313      9316      9319
      9312      9311      9313      9314      9312      9311      9313      9315
      9312      9311      9313      9316      9313      9316      9319      9320
      9313      9316      9319      9321      9313      9316      9319      9322
      9314      9313      9316      9317      9314      9313      9316      9318
      9314      9313      9316      9319      9315      9313      9316      9317
      9315      9313      9316      9318      9315      9313      9316      9319
      9316      9319      9322      9323      9316      9319      9322      9324
      9316      9319      9322      9325      9317      9316      9319      9320
      9317      9316      9319      9321      9317      9316      9319      9322
      9318      9316      9319      9320      9318      9316      9319      9321
      9318      9316      9319      9322      9319      9322      9325      9326
      9319      9322      9325      9327      9319      9322      9325      9328
      9320      9319      9322      9323      9320      9319      9322      9324
      9320      9319      9322      9325      9321      9319      9322      9323
      9321      9319      9322      9324      9321      9319      9322      9325
      9322      9325      9328      9329      9322      9325      9328      9330
      9322      9325      9328      9331      9323      9322      9325      9326
      9323      9322      9325      9327      9323      9322      9325      9328
      9324      9322      9325      9326      9324      9322      9325      9327
      9324      9322      9325      9328      9325      9328      9331      9332
      9325      9328      9331      9333      9325      9328      9331      9334
      9326      9325      9328      9329      9326      9325      9328      9330
      9326      9325      9328      9331      9327      9325      9328      9329
      9327      9325      9328      9330      9327      9325      9328      9331
      9328      9331      9334      9335      9328      9331      9334      9336
      9328      9331      9334      9337      9329      9328      9331      9332
      9329      9328      9331      9333      9329      9328      9331      9334
      9330      9328      9331      9332      9330      9328      9331      9333
      9330      9328      9331      9334      9332      9331      9334      9335
      9332      9331      9334      9336      9332      9331      9334      9337
      9333      9331      9334      9335      9333      9331      9334      9336
      9333      9331      9334      9337      9338      9341      9344      9345
      9338      9341      9344      9346      9338      9341      9344      9347
      9339      9338      9341      9342      9339      9338      9341      9343
      9339      9338      9341      9344      9340      9338      9341      9342
      9340      9338      9341      9343      9340      9338      9341      9344
      9341      9344      9347      9348      9341      9344      9347      9349
      9341      9344      9347      9350      9342      9341      9344      9345
      9342      9341      9344      9346      9342      9341      9344      9347
      9343      9341      9344      9345      9343      9341      9344      9346
      9343      9341      9344      9347      9344      9347      9350      9351
      9344      9347      9350      9352      9344      9347      9350      9353
      9345      9344      9347      9348      9345      9344      9347      9349
      9345      9344      9347      9350      9346      9344      9347      9348
      9346      9344      9347      9349      9346      9344      9347      9350
      9347      9350      9353      9354      9347      9350      9353      9355
      9347      9350      9353      9356      9348      9347      9350      9351
      9348      9347      9350      9352      9348      9347      9350      9353
      9349      9347      9350      9351      9349      9347      9350      9352
      9349      9347      9350      9353      9350      9353      9356      9357
      9350      9353      9356      9358      9351      9350      9353      9354
      9351      9350      9353      9355      9351      9350      9353      9356
      9352      9350      9353      9354      9352      9350      9353      9355
      9352      9350      9353      9356      9353      9356      9358      9359
      9353      9356      9358      9360      9354      9353      9356      9357
      9354      9353      9356      9358      9355      9353      9356      9357
      9355      9353      9356      9358      9356      9358      9360      9361
      9356      9358      9360      9362      9356      9358      9360      9363
      9357      9356      9358      9359      9357      9356      9358      9360
      9358      9360      9363      9364      9358      9360      9363      9365
      9358      9360      9363      9366      9359      9358      9360      9361
      9359      9358      9360      9362      9359      9358      9360      9363
      9360      9363      9366      9367      9360      9363      9366      9368
      9360      9363      9366      9369      9361      9360      9363      9364
      9361      9360      9363      9365      9361      9360      9363      9366
      9362      9360      9363      9364      9362      9360      9363      9365
      9362      9360      9363      9366      9363      9366      9369      9370
      9363      9366      9369      9371      9363      9366      9369      9372
      9364      9363      9366      9367      9364      9363      9366      9368
      9364      9363      9366      9369      9365      9363      9366      9367
      9365      9363      9366      9368      9365      9363      9366      9369
      9366      9369      9372      9373      9366      9369      9372      9374
      9366      9369      9372      9375      9367      9366      9369      9370
      9367      9366      9369      9371      9367      9366      9369      9372
      9368      9366      9369      9370      9368      9366      9369      9371
      9368      9366      9369      9372      9369      9372      9375      9376
      9369      9372      9375      9377      9369      9372      9375      9378
      9370      9369      9372      9373      9370      9369      9372      9374
      9370      9369      9372      9375      9371      9369      9372      9373
      9371      9369      9372      9374      9371      9369      9372      9375
      9372      9375      9378      9379      9372      9375      9378      9380
      9372      9375      9378      9381      9373      9372      9375      9376
      9373      9372      9375      9377      9373      9372      9375      9378
      9374      9372      9375      9376      9374      9372      9375      9377
      9374      9372      9375      9378      9375      9378      9381      9382
      9375      9378      9381      9383      9375      9378      9381      9384
      9376      9375      9378      9379      9376      9375      9378      9380
      9376      9375      9378      9381      9377      9375      9378      9379
      9377      9375      9378      9380      9377      9375      9378      9381
      9379      9378      9381      9382      9379      9378      9381      9383
      9379      9378      9381      9384      9380      9378      9381      9382
      9380      9378      9381      9383      9380      9378      9381      9384
      9385      9386      9401      9402      9385      9386      9401      9403
      9385      9386      9401      9407      9386      9385      9389      9390
      9386      9385      9389      9391      9386      9385      9389      9392
      9386      9385      9393      9394      9386      9385      9393      9395
      9386      9385      9393      9396      9386      9385      9397      9398
      9386      9385      9397      9399      9386      9385      9397      9400
      9386      9401      9407      9404      9387      9386      9385      9389
      9387      9386      9385      9393      9387      9386      9385      9397
      9387      9386      9401      9402      9387      9386      9401      9403
      9387      9386      9401      9407      9388      9386      9385      9389
      9388      9386      9385      9393      9388      9386      9385      9397
      9388      9386      9401      9402      9388      9386      9401      9403
      9388      9386      9401      9407      9389      9385      9386      9401
      9389      9385      9393      9394      9389      9385      9393      9395
      9389      9385      9393      9396      9389      9385      9397      9398
      9389      9385      9397      9399      9389      9385      9397      9400
      9390      9389      9385      9393      9390      9389      9385      9397
      9391      9389      9385      9393      9391      9389      9385      9397
      9392      9389      9385      9393      9392      9389      9385      9397
      9393      9385      9386      9401      9393      9385      9397      9398
      9393      9385      9397      9399      9393      9385      9397      9400
      9394      9393      9385      9397      9395      9393      9385      9397
      9396      9393      9385      9397      9397      9385      9386      9401
      9401      9407      9404      9405      9401      9407      9404      9406
      9401      9407      9404      9408      9402      9401      9407      9404
      9403      9401      9407      9404      9404      9408      9409      9410
      9404      9408      9409      9411      9404      9408      9409      9412
      9405      9404      9408      9409      9406      9404      9408      9409
      9407      9404      9408      9409      9408      9409      9412      9413
      9408      9409      9412      9414      9408      9409      9412      9420
      9409      9412      9414      9415      9409      9412      9420      9421
      9409      9412      9420      9422      9409      9412      9420      9423
      9410      9409      9412      9413      9410      9409      9412      9414
      9410      9409      9412      9420      9411      9409      9412      9413
      9411      9409      9412      9414      9411      9409      9412      9420
      9412      9414      9415      9416      9412      9414      9415      9417
      9412      9420      9423      9424      9413      9412      9414      9415
      9413      9412      9420      9421      9413      9412      9420      9422
      9413      9412      9420      9423      9414      9412      9420      9421
      9414      9412      9420      9422      9414      9412      9420      9423
      9414      9415      9417      9418      9414      9415      9417      9419
      9414      9415      9417      9429      9415      9414      9412      9420
      9415      9417      9429      9430      9415      9417      9429      9431
      9415      9417      9429      9432      9416      9415      9417      9418
      9416      9415      9417      9419      9416      9415      9417      9429
      9417      9429      9432      9433      9417      9429      9432      9434
      9417      9429      9432      9435      9418      9417      9429      9430
      9418      9417      9429      9431      9418      9417      9429      9432
      9419      9417      9429      9430      9419      9417      9429      9431
      9419      9417      9429      9432      9420      9423      9424      9425
      9420      9423      9424      9426      9421      9420      9423      9424
      9422      9420      9423      9424      9423      9424      9426      9427
      9423      9424      9426      9428      9423      9424      9426      9476
      9424      9426      9476      9477      9424      9426      9476      9478
      9424      9426      9476      9479      9425      9424      9426      9427
      9425      9424      9426      9428      9425      9424      9426      9476
      9426      9476      9479      9480      9426      9476      9479      9481
      9426      9476      9479      9482      9427      9426      9476      9477
      9427      9426      9476      9478      9427      9426      9476      9479
      9428      9426      9476      9477      9428      9426      9476      9478
      9428      9426      9476      9479      9429      9432      9435      9436
      9429      9432      9435      9437      9429      9432      9435      9438
      9430      9429      9432      9433      9430      9429      9432      9434
      9430      9429      9432      9435      9431      9429      9432      9433
      9431      9429      9432      9434      9431      9429      9432      9435
      9432      9435      9438      9439      9432      9435      9438      9440
      9432      9435      9438      9441      9433      9432      9435      9436
      9433      9432      9435      9437      9433      9432      9435      9438
      9434      9432      9435      9436      9434      9432      9435      9437
      9434      9432      9435      9438      9435      9438      9441      9442
      9435      9438      9441      9443      9435      9438      9441      9444
      9436      9435      9438      9439      9436      9435      9438      9440
      9436      9435      9438      9441      9437      9435      9438      9439
      9437      9435      9438      9440      9437      9435      9438      9441
      9438      9441      9444      9445      9438      9441      9444      9446
      9438      9441      9444      9447      9439      9438      9441      9442
      9439      9438      9441      9443      9439      9438      9441      9444
      9440      9438      9441      9442      9440      9438      9441      9443
      9440      9438      9441      9444      9441      9444      9447      9448
      9441      9444      9447      9449      9442      9441      9444      9445
      9442      9441      9444      9446      9442      9441      9444      9447
      9443      9441      9444      9445      9443      9441      9444      9446
      9443      9441      9444      9447      9444      9447      9449      9450
      9444      9447      9449      9451      9445      9444      9447      9448
      9445      9444      9447      9449      9446      9444      9447      9448
      9446      9444      9447      9449      9447      9449      9451      9452
      9447      9449      9451      9453      9447      9449      9451      9454
      9448      9447      9449      9450      9448      9447      9449      9451
      9449      9451      9454      9455      9449      9451      9454      9456
      9449      9451      9454      9457      9450      9449      9451      9452
      9450      9449      9451      9453      9450      9449      9451      9454
      9451      9454      9457      9458      9451      9454      9457      9459
      9451      9454      9457      9460      9452      9451      9454      9455
      9452      9451      9454      9456      9452      9451      9454      9457
      9453      9451      9454      9455      9453      9451      9454      9456
      9453      9451      9454      9457      9454      9457      9460      9461
      9454      9457      9460      9462      9454      9457      9460      9463
      9455      9454      9457      9458      9455      9454      9457      9459
      9455      9454      9457      9460      9456      9454      9457      9458
      9456      9454      9457      9459      9456      9454      9457      9460
      9457      9460      9463      9464      9457      9460      9463      9465
      9457      9460      9463      9466      9458      9457      9460      9461
      9458      9457      9460      9462      9458      9457      9460      9463
      9459      9457      9460      9461      9459      9457      9460      9462
      9459      9457      9460      9463      9460      9463      9466      9467
      9460      9463      9466      9468      9460      9463      9466      9469
      9461      9460      9463      9464      9461      9460      9463      9465
      9461      9460      9463      9466      9462      9460      9463      9464
      9462      9460      9463      9465      9462      9460      9463      9466
      9463      9466      9469      9470      9463      9466      9469      9471
      9463      9466      9469      9472      9464      9463      9466      9467
      9464      9463      9466      9468      9464      9463      9466      9469
      9465      9463      9466      9467      9465      9463      9466      9468
      9465      9463      9466      9469      9466      9469      9472      9473
      9466      9469      9472      9474      9466      9469      9472      9475
      9467      9466      9469      9470      9467      9466      9469      9471
      9467      9466      9469      9472      9468      9466      9469      9470
      9468      9466      9469      9471      9468      9466      9469      9472
      9470      9469      9472      9473      9470      9469      9472      9474
      9470      9469      9472      9475      9471      9469      9472      9473
      9471      9469      9472      9474      9471      9469      9472      9475
      9476      9479      9482      9483      9476      9479      9482      9484
      9476      9479      9482      9485      9477      9476      9479      9480
      9477      9476      9479      9481      9477      9476      9479      9482
      9478      9476      9479      9480      9478      9476      9479      9481
      9478      9476      9479      9482      9479      9482      9485      9486
      9479      9482      9485      9487      9479      9482      9485      9488
      9480      9479      9482      9483      9480      9479      9482      9484
      9480      9479      9482      9485      9481      9479      9482      9483
      9481      9479      9482      9484      9481      9479      9482      9485
      9482      9485      9488      9489      9482      9485      9488      9490
      9482      9485      9488      9491      9483      9482      9485      9486
      9483      9482      9485      9487      9483      9482      9485      9488
      9484      9482      9485      9486      9484      9482      9485      9487
      9484      9482      9485      9488      9485      9488      9491      9492
      9485      9488      9491      9493      9485      9488      9491      9494
      9486      9485      9488      9489      9486      9485      9488      9490
      9486      9485      9488      9491      9487      9485      9488      9489
      9487      9485      9488      9490      9487      9485      9488      9491
      9488      9491      9494      9495      9488      9491      9494      9496
      9489      9488      9491      9492      9489      9488      9491      9493
      9489      9488      9491      9494      9490      9488      9491      9492
      9490      9488      9491      9493      9490      9488      9491      9494
      9491      9494      9496      9497      9491      9494      9496      9498
      9492      9491      9494      9495      9492      9491      9494      9496
      9493      9491      9494      9495      9493      9491      9494      9496
      9494      9496      9498      9499      9494      9496      9498      9500
      9494      9496      9498      9501      9495      9494      9496      9497
      9495      9494      9496      9498      9496      9498      9501      9502
      9496      9498      9501      9503      9496      9498      9501      9504
      9497      9496      9498      9499      9497      9496      9498      9500
      9497      9496      9498      9501      9498      9501      9504      9505
      9498      9501      9504      9506      9498      9501      9504      9507
      9499      9498      9501      9502      9499      9498      9501      9503
      9499      9498      9501      9504      9500      9498      9501      9502
      9500      9498      9501      9503      9500      9498      9501      9504
      9501      9504      9507      9508      9501      9504      9507      9509
      9501      9504      9507      9510      9502      9501      9504      9505
      9502      9501      9504      9506      9502      9501      9504      9507
      9503      9501      9504      9505      9503      9501      9504      9506
      9503      9501      9504      9507      9504      9507      9510      9511
      9504      9507      9510      9512      9504      9507      9510      9513
      9505      9504      9507      9508      9505      9504      9507      9509
      9505      9504      9507      9510      9506      9504      9507      9508
      9506      9504      9507      9509      9506      9504      9507      9510
      9507      9510      9513      9514      9507      9510      9513      9515
      9507      9510      9513      9516      9508      9507      9510      9511
      9508      9507      9510      9512      9508      9507      9510      9513
      9509      9507      9510      9511      9509      9507      9510      9512
      9509      9507      9510      9513      9510      9513      9516      9517
      9510      9513      9516      9518      9510      9513      9516      9519
      9511      9510      9513      9514      9511      9510      9513      9515
      9511      9510      9513      9516      9512      9510      9513      9514
      9512      9510      9513      9515      9512      9510      9513      9516
      9513      9516      9519      9520      9513      9516      9519      9521
      9513      9516      9519      9522      9514      9513      9516      9517
      9514      9513      9516      9518      9514      9513      9516      9519
      9515      9513      9516      9517      9515      9513      9516      9518
      9515      9513      9516      9519      9517      9516      9519      9520
      9517      9516      9519      9521      9517      9516      9519      9522
      9518      9516      9519      9520      9518      9516      9519      9521
      9518      9516      9519      9522      9523      9524      9539      9540
      9523      9524      9539      9541      9523      9524      9539      9545
      9524      9523      9527      9528      9524      9523      9527      9529
      9524      9523      9527      9530      9524      9523      9531      9532
      9524      9523      9531      9533      9524      9523      9531      9534
      9524      9523      9535      9536      9524      9523      9535      9537
      9524      9523      9535      9538      9524      9539      9545      9542
      9525      9524      9523      9527      9525      9524      9523      9531
      9525      9524      9523      9535      9525      9524      9539      9540
      9525      9524      9539      9541      9525      9524      9539      9545
      9526      9524      9523      9527      9526      9524      9523      9531
      9526      9524      9523      9535      9526      9524      9539      9540
      9526      9524      9539      9541      9526      9524      9539      9545
      9527      9523      9524      9539      9527      9523      9531      9532
      9527      9523      9531      9533      9527      9523      9531      9534
      9527      9523      9535      9536      9527      9523      9535      9537
      9527      9523      9535      9538      9528      9527      9523      9531
      9528      9527      9523      9535      9529      9527      9523      9531
      9529      9527      9523      9535      9530      9527      9523      9531
      9530      9527      9523      9535      9531      9523      9524      9539
      9531      9523      9535      9536      9531      9523      9535      9537
      9531      9523      9535      9538      9532      9531      9523      9535
      9533      9531      9523      9535      9534      9531      9523      9535
      9535      9523      9524      9539      9539      9545      9542      9543
      9539      9545      9542      9544      9539      9545      9542      9546
      9540      9539      9545      9542      9541      9539      9545      9542
      9542      9546      9547      9548      9542      9546      9547      9549
      9542      9546      9547      9550      9543      9542      9546      9547
      9544      9542      9546      9547      9545      9542      9546      9547
      9546      9547      9550      9551      9546      9547      9550      9552
      9546      9547      9550      9558      9547      9550      9552      9553
      9547      9550      9558      9559      9547      9550      9558      9560
      9547      9550      9558      9561      9548      9547      9550      9551
      9548      9547      9550      9552      9548      9547      9550      9558
      9549      9547      9550      9551      9549      9547      9550      9552
      9549      9547      9550      9558      9550      9552      9553      9554
      9550      9552      9553      9555      9550      9558      9561      9562
      9551      9550      9552      9553      9551      9550      9558      9559
      9551      9550      9558      9560      9551      9550      9558      9561
      9552      9550      9558      9559      9552      9550      9558      9560
      9552      9550      9558      9561      9552      9553      9555      9556
      9552      9553      9555      9557      9552      9553      9555      9567
      9553      9552      9550      9558      9553      9555      9567      9568
      9553      9555      9567      9569      9553      9555      9567      9570
      9554      9553      9555      9556      9554      9553      9555      9557
      9554      9553      9555      9567      9555      9567      9570      9571
      9555      9567      9570      9572      9555      9567      9570      9573
      9556      9555      9567      9568      9556      9555      9567      9569
      9556      9555      9567      9570      9557      9555      9567      9568
      9557      9555      9567      9569      9557      9555      9567      9570
      9558      9561      9562      9563      9558      9561      9562      9564
      9559      9558      9561      9562      9560      9558      9561      9562
      9561      9562      9564      9565      9561      9562      9564      9566
      9561      9562      9564      9614      9562      9564      9614      9615
      9562      9564      9614      9616      9562      9564      9614      9617
      9563      9562      9564      9565      9563      9562      9564      9566
      9563      9562      9564      9614      9564      9614      9617      9618
      9564      9614      9617      9619      9564      9614      9617      9620
      9565      9564      9614      9615      9565      9564      9614      9616
      9565      9564      9614      9617      9566      9564      9614      9615
      9566      9564      9614      9616      9566      9564      9614      9617
      9567      9570      9573      9574      9567      9570      9573      9575
      9567      9570      9573      9576      9568      9567      9570      9571
      9568      9567      9570      9572      9568      9567      9570      9573
      9569      9567      9570      9571      9569      9567      9570      9572
      9569      9567      9570      9573      9570      9573      9576      9577
      9570      9573      9576      9578      9570      9573      9576      9579
      9571      9570      9573      9574      9571      9570      9573      9575
      9571      9570      9573      9576      9572      9570      9573      9574
      9572      9570      9573      9575      9572      9570      9573      9576
      9573      9576      9579      9580      9573      9576      9579      9581
      9573      9576      9579      9582      9574      9573      9576      9577
      9574      9573      9576      9578      9574      9573      9576      9579
      9575      9573      9576      9577      9575      9573      9576      9578
      9575      9573      9576      9579      9576      9579      9582      9583
      9576      9579      9582      9584      9576      9579      9582      9585
      9577      9576      9579      9580      9577      9576      9579      9581
      9577      9576      9579      9582      9578      9576      9579      9580
      9578      9576      9579      9581      9578      9576      9579      9582
      9579      9582      9585      9586      9579      9582      9585      9587
      9580      9579      9582      9583      9580      9579      9582      9584
      9580      9579      9582      9585      9581      9579      9582      9583
      9581      9579      9582      9584      9581      9579      9582      9585
      9582      9585      9587      9588      9582      9585      9587      9589
      9583      9582      9585      9586      9583      9582      9585      9587
      9584      9582      9585      9586      9584      9582      9585      9587
      9585      9587      9589      9590      9585      9587      9589      9591
      9585      9587      9589      9592      9586      9585      9587      9588
      9586      9585      9587      9589      9587      9589      9592      9593
      9587      9589      9592      9594      9587      9589      9592      9595
      9588      9587      9589      9590      9588      9587      9589      9591
      9588      9587      9589      9592      9589      9592      9595      9596
      9589      9592      9595      9597      9589      9592      9595      9598
      9590      9589      9592      9593      9590      9589      9592      9594
      9590      9589      9592      9595      9591      9589      9592      9593
      9591      9589      9592      9594      9591      9589      9592      9595
      9592      9595      9598      9599      9592      9595      9598      9600
      9592      9595      9598      9601      9593      9592      9595      9596
      9593      9592      9595      9597      9593      9592      9595      9598
      9594      9592      9595      9596      9594      9592      9595      9597
      9594      9592      9595      9598      9595      9598      9601      9602
      9595      9598      9601      9603      9595      9598      9601      9604
      9596      9595      9598      9599      9596      9595      9598      9600
      9596      9595      9598      9601      9597      9595      9598      9599
      9597      9595      9598      9600      9597      9595      9598      9601
      9598      9601      9604      9605      9598      9601      9604      9606
      9598      9601      9604      9607      9599      9598      9601      9602
      9599      9598      9601      9603      9599      9598      9601      9604
      9600      9598      9601      9602      9600      9598      9601      9603
      9600      9598      9601      9604      9601      9604      9607      9608
      9601      9604      9607      9609      9601      9604      9607      9610
      9602      9601      9604      9605      9602      9601      9604      9606
      9602      9601      9604      9607      9603      9601      9604      9605
      9603      9601      9604      9606      9603      9601      9604      9607
      9604      9607      9610      9611      9604      9607      9610      9612
      9604      9607      9610      9613      9605      9604      9607      9608
      9605      9604      9607      9609      9605      9604      9607      9610
      9606      9604      9607      9608      9606      9604      9607      9609
      9606      9604      9607      9610      9608      9607      9610      9611
      9608      9607      9610      9612      9608      9607      9610      9613
      9609      9607      9610      9611      9609      9607      9610      9612
      9609      9607      9610      9613      9614      9617      9620      9621
      9614      9617      9620      9622      9614      9617      9620      9623
      9615      9614      9617      9618      9615      9614      9617      9619
      9615      9614      9617      9620      9616      9614      9617      9618
      9616      9614      9617      9619      9616      9614      9617      9620
      9617      9620      9623      9624      9617      9620      9623      9625
      9617      9620      9623      9626      9618      9617      9620      9621
      9618      9617      9620      9622      9618      9617      9620      9623
      9619      9617      9620      9621      9619      9617      9620      9622
      9619      9617      9620      9623      9620      9623      9626      9627
      9620      9623      9626      9628      9620      9623      9626      9629
      9621      9620      9623      9624      9621      9620      9623      9625
      9621      9620      9623      9626      9622      9620      9623      9624
      9622      9620      9623      9625      9622      9620      9623      9626
      9623      9626      9629      9630      9623      9626      9629      9631
      9623      9626      9629      9632      9624      9623      9626      9627
      9624      9623      9626      9628      9624      9623      9626      9629
      9625      9623      9626      9627      9625      9623      9626      9628
      9625      9623      9626      9629      9626      9629      9632      9633
      9626      9629      9632      9634      9627      9626      9629      9630
      9627      9626      9629      9631      9627      9626      9629      9632
      9628      9626      9629      9630      9628      9626      9629      9631
      9628      9626      9629      9632      9629      9632      9634      9635
      9629      9632      9634      9636      9630      9629      9632      9633
      9630      9629      9632      9634      9631      9629      9632      9633
      9631      9629      9632      9634      9632      9634      9636      9637
      9632      9634      9636      9638      9632      9634      9636      9639
      9633      9632      9634      9635      9633      9632      9634      9636
      9634      9636      9639      9640      9634      9636      9639      9641
      9634      9636      9639      9642      9635      9634      9636      9637
      9635      9634      9636      9638      9635      9634      9636      9639
      9636      9639      9642      9643      9636      9639      9642      9644
      9636      9639      9642      9645      9637      9636      9639      9640
      9637      9636      9639      9641      9637      9636      9639      9642
      9638      9636      9639      9640      9638      9636      9639      9641
      9638      9636      9639      9642      9639      9642      9645      9646
      9639      9642      9645      9647      9639      9642      9645      9648
      9640      9639      9642      9643      9640      9639      9642      9644
      9640      9639      9642      9645      9641      9639      9642      9643
      9641      9639      9642      9644      9641      9639      9642      9645
      9642      9645      9648      9649      9642      9645      9648      9650
      9642      9645      9648      9651      9643      9642      9645      9646
      9643      9642      9645      9647      9643      9642      9645      9648
      9644      9642      9645      9646      9644      9642      9645      9647
      9644      9642      9645      9648      9645      9648      9651      9652
      9645      9648      9651      9653      9645      9648      9651      9654
      9646      9645      9648      9649      9646      9645      9648      9650
      9646      9645      9648      9651      9647      9645      9648      9649
      9647      9645      9648      9650      9647      9645      9648      9651
      9648      9651      9654      9655      9648      9651      9654      9656
      9648      9651      9654      9657      9649      9648      9651      9652
      9649      9648      9651      9653      9649      9648      9651      9654
      9650      9648      9651      9652      9650      9648      9651      9653
      9650      9648      9651      9654      9651      9654      9657      9658
      9651      9654      9657      9659      9651      9654      9657      9660
      9652      9651      9654      9655      9652      9651      9654      9656
      9652      9651      9654      9657      9653      9651      9654      9655
      9653      9651      9654      9656      9653      9651      9654      9657
      9655      9654      9657      9658      9655      9654      9657      9659
      9655      9654      9657      9660      9656      9654      9657      9658
      9656      9654      9657      9659      9656      9654      9657      9660
      9661      9662      9677      9678      9661      9662      9677      9679
      9661      9662      9677      9683      9662      9661      9665      9666
      9662      9661      9665      9667      9662      9661      9665      9668
      9662      9661      9669      9670      9662      9661      9669      9671
      9662      9661      9669      9672      9662      9661      9673      9674
      9662      9661      9673      9675      9662      9661      9673      9676
      9662      9677      9683      9680      9663      9662      9661      9665
      9663      9662      9661      9669      9663      9662      9661      9673
      9663      9662      9677      9678      9663      9662      9677      9679
      9663      9662      9677      9683      9664      9662      9661      9665
      9664      9662      9661      9669      9664      9662      9661      9673
      9664      9662      9677      9678      9664      9662      9677      9679
      9664      9662      9677      9683      9665      9661      9662      9677
      9665      9661      9669      9670      9665      9661      9669      9671
      9665      9661      9669      9672      9665      9661      9673      9674
      9665      9661      9673      9675      9665      9661      9673      9676
      9666      9665      9661      9669      9666      9665      9661      9673
      9667      9665      9661      9669      9667      9665      9661      9673
      9668      9665      9661      9669      9668      9665      9661      9673
      9669      9661      9662      9677      9669      9661      9673      9674
      9669      9661      9673      9675      9669      9661      9673      9676
      9670      9669      9661      9673      9671      9669      9661      9673
      9672      9669      9661      9673      9673      9661      9662      9677
      9677      9683      9680      9681      9677      9683      9680      9682
      9677      9683      9680      9684      9678      9677      9683      9680
      9679      9677      9683      9680      9680      9684      9685      9686
      9680      9684      9685      9687      9680      9684      9685      9688
      9681      9680      9684      9685      9682      9680      9684      9685
      9683      9680      9684      9685      9684      9685      9688      9689
      9684      9685      9688      9690      9684      9685      9688      9696
      9685      9688      9690      9691      9685      9688      9696      9697
      9685      9688      9696      9698      9685      9688      9696      9699
      9686      9685      9688      9689      9686      9685      9688      9690
      9686      9685      9688      9696      9687      9685      9688      9689
      9687      9685      9688      9690      9687      9685      9688      9696
      9688      9690      9691      9692      9688      9690      9691      9693
      9688      9696      9699      9700      9689      9688      9690      9691
      9689      9688      9696      9697      9689      9688      9696      9698
      9689      9688      9696      9699      9690      9688      9696      9697
      9690      9688      9696      9698      9690      9688      9696      9699
      9690      9691      9693      9694      9690      9691      9693      9695
      9690      9691      9693      9705      9691      9690      9688      9696
      9691      9693      9705      9706      9691      9693      9705      9707
      9691      9693      9705      9708      9692      9691      9693      9694
      9692      9691      9693      9695      9692      9691      9693      9705
      9693      9705      9708      9709      9693      9705      9708      9710
      9693      9705      9708      9711      9694      9693      9705      9706
      9694      9693      9705      9707      9694      9693      9705      9708
      9695      9693      9705      9706      9695      9693      9705      9707
      9695      9693      9705      9708      9696      9699      9700      9701
      9696      9699      9700      9702      9697      9696      9699      9700
      9698      9696      9699      9700      9699      9700      9702      9703
      9699      9700      9702      9704      9699      9700      9702      9752
      9700      9702      9752      9753      9700      9702      9752      9754
      9700      9702      9752      9755      9701      9700      9702      9703
      9701      9700      9702      9704      9701      9700      9702      9752
      9702      9752      9755      9756      9702      9752      9755      9757
      9702      9752      9755      9758      9703      9702      9752      9753
      9703      9702      9752      9754      9703      9702      9752      9755
      9704      9702      9752      9753      9704      9702      9752      9754
      9704      9702      9752      9755      9705      9708      9711      9712
      9705      9708      9711      9713      9705      9708      9711      9714
      9706      9705      9708      9709      9706      9705      9708      9710
      9706      9705      9708      9711      9707      9705      9708      9709
      9707      9705      9708      9710      9707      9705      9708      9711
      9708      9711      9714      9715      9708      9711      9714      9716
      9708      9711      9714      9717      9709      9708      9711      9712
      9709      9708      9711      9713      9709      9708      9711      9714
      9710      9708      9711      9712      9710      9708      9711      9713
      9710      9708      9711      9714      9711      9714      9717      9718
      9711      9714      9717      9719      9711      9714      9717      9720
      9712      9711      9714      9715      9712      9711      9714      9716
      9712      9711      9714      9717      9713      9711      9714      9715
      9713      9711      9714      9716      9713      9711      9714      9717
      9714      9717      9720      9721      9714      9717      9720      9722
      9714      9717      9720      9723      9715      9714      9717      9718
      9715      9714      9717      9719      9715      9714      9717      9720
      9716      9714      9717      9718      9716      9714      9717      9719
      9716      9714      9717      9720      9717      9720      9723      9724
      9717      9720      9723      9725      9718      9717      9720      9721
      9718      9717      9720      9722      9718      9717      9720      9723
      9719      9717      9720      9721      9719      9717      9720      9722
      9719      9717      9720      9723      9720      9723      9725      9726
      9720      9723      9725      9727      9721      9720      9723      9724
      9721      9720      9723      9725      9722      9720      9723      9724
      9722      9720      9723      9725      9723      9725      9727      9728
      9723      9725      9727      9729      9723      9725      9727      9730
      9724      9723      9725      9726      9724      9723      9725      9727
      9725      9727      9730      9731      9725      9727      9730      9732
      9725      9727      9730      9733      9726      9725      9727      9728
      9726      9725      9727      9729      9726      9725      9727      9730
      9727      9730      9733      9734      9727      9730      9733      9735
      9727      9730      9733      9736      9728      9727      9730      9731
      9728      9727      9730      9732      9728      9727      9730      9733
      9729      9727      9730      9731      9729      9727      9730      9732
      9729      9727      9730      9733      9730      9733      9736      9737
      9730      9733      9736      9738      9730      9733      9736      9739
      9731      9730      9733      9734      9731      9730      9733      9735
      9731      9730      9733      9736      9732      9730      9733      9734
      9732      9730      9733      9735      9732      9730      9733      9736
      9733      9736      9739      9740      9733      9736      9739      9741
      9733      9736      9739      9742      9734      9733      9736      9737
      9734      9733      9736      9738      9734      9733      9736      9739
      9735      9733      9736      9737      9735      9733      9736      9738
      9735      9733      9736      9739      9736      9739      9742      9743
      9736      9739      9742      9744      9736      9739      9742      9745
      9737      9736      9739      9740      9737      9736      9739      9741
      9737      9736      9739      9742      9738      9736      9739      9740
      9738      9736      9739      9741      9738      9736      9739      9742
      9739      9742      9745      9746      9739      9742      9745      9747
      9739      9742      9745      9748      9740      9739      9742      9743
      9740      9739      9742      9744      9740      9739      9742      9745
      9741      9739      9742      9743      9741      9739      9742      9744
      9741      9739      9742      9745      9742      9745      9748      9749
      9742      9745      9748      9750      9742      9745      9748      9751
      9743      9742      9745      9746      9743      9742      9745      9747
      9743      9742      9745      9748      9744      9742      9745      9746
      9744      9742      9745      9747      9744      9742      9745      9748
      9746      9745      9748      9749      9746      9745      9748      9750
      9746      9745      9748      9751      9747      9745      9748      9749
      9747      9745      9748      9750      9747      9745      9748      9751
      9752      9755      9758      9759      9752      9755      9758      9760
      9752      9755      9758      9761      9753      9752      9755      9756
      9753      9752      9755      9757      9753      9752      9755      9758
      9754      9752      9755      9756      9754      9752      9755      9757
      9754      9752      9755      9758      9755      9758      9761      9762
      9755      9758      9761      9763      9755      9758      9761      9764
      9756      9755      9758      9759      9756      9755      9758      9760
      9756      9755      9758      9761      9757      9755      9758      9759
      9757      9755      9758      9760      9757      9755      9758      9761
      9758      9761      9764      9765      9758      9761      9764      9766
      9758      9761      9764      9767      9759      9758      9761      9762
      9759      9758      9761      9763      9759      9758      9761      9764
      9760      9758      9761      9762      9760      9758      9761      9763
      9760      9758      9761      9764      9761      9764      9767      9768
      9761      9764      9767      9769      9761      9764      9767      9770
      9762      9761      9764      9765      9762      9761      9764      9766
      9762      9761      9764      9767      9763      9761      9764      9765
      9763      9761      9764      9766      9763      9761      9764      9767
      9764      9767      9770      9771      9764      9767      9770      9772
      9765      9764      9767      9768      9765      9764      9767      9769
      9765      9764      9767      9770      9766      9764      9767      9768
      9766      9764      9767      9769      9766      9764      9767      9770
      9767      9770      9772      9773      9767      9770      9772      9774
      9768      9767      9770      9771      9768      9767      9770      9772
      9769      9767      9770      9771      9769      9767      9770      9772
      9770      9772      9774      9775      9770      9772      9774      9776
      9770      9772      9774      9777      9771      9770      9772      9773
      9771      9770      9772      9774      9772      9774      9777      9778
      9772      9774      9777      9779      9772      9774      9777      9780
      9773      9772      9774      9775      9773      9772      9774      9776
      9773      9772      9774      9777      9774      9777      9780      9781
      9774      9777      9780      9782      9774      9777      9780      9783
      9775      9774      9777      9778      9775      9774      9777      9779
      9775      9774      9777      9780      9776      9774      9777      9778
      9776      9774      9777      9779      9776      9774      9777      9780
      9777      9780      9783      9784      9777      9780      9783      9785
      9777      9780      9783      9786      9778      9777      9780      9781
      9778      9777      9780      9782      9778      9777      9780      9783
      9779      9777      9780      9781      9779      9777      9780      9782
      9779      9777      9780      9783      9780      9783      9786      9787
      9780      9783      9786      9788      9780      9783      9786      9789
      9781      9780      9783      9784      9781      9780      9783      9785
      9781      9780      9783      9786      9782      9780      9783      9784
      9782      9780      9783      9785      9782      9780      9783      9786
      9783      9786      9789      9790      9783      9786      9789      9791
      9783      9786      9789      9792      9784      9783      9786      9787
      9784      9783      9786      9788      9784      9783      9786      9789
      9785      9783      9786      9787      9785      9783      9786      9788
      9785      9783      9786      9789      9786      9789      9792      9793
      9786      9789      9792      9794      9786      9789      9792      9795
      9787      9786      9789      9790      9787      9786      9789      9791
      9787      9786      9789      9792      9788      9786      9789      9790
      9788      9786      9789      9791      9788      9786      9789      9792
      9789      9792      9795      9796      9789      9792      9795      9797
      9789      9792      9795      9798      9790      9789      9792      9793
      9790      9789      9792      9794      9790      9789      9792      9795
      9791      9789      9792      9793      9791      9789      9792      9794
      9791      9789      9792      9795      9793      9792      9795      9796
      9793      9792      9795      9797      9793      9792      9795      9798
      9794      9792      9795      9796      9794      9792      9795      9797
      9794      9792      9795      9798      9799      9800      9815      9816
      9799      9800      9815      9817      9799      9800      9815      9821
      9800      9799      9803      9804      9800      9799      9803      9805
      9800      9799      9803      9806      9800      9799      9807      9808
      9800      9799      9807      9809      9800      9799      9807      9810
      9800      9799      9811      9812      9800      9799      9811      9813
      9800      9799      9811      9814      9800      9815      9821      9818
      9801      9800      9799      9803      9801      9800      9799      9807
      9801      9800      9799      9811      9801      9800      9815      9816
      9801      9800      9815      9817      9801      9800      9815      9821
      9802      9800      9799      9803      9802      9800      9799      9807
      9802      9800      9799      9811      9802      9800      9815      9816
      9802      9800      9815      9817      9802      9800      9815      9821
      9803      9799      9800      9815      9803      9799      9807      9808
      9803      9799      9807      9809      9803      9799      9807      9810
      9803      9799      9811      9812      9803      9799      9811      9813
      9803      9799      9811      9814      9804      9803      9799      9807
      9804      9803      9799      9811      9805      9803      9799      9807
      9805      9803      9799      9811      9806      9803      9799      9807
      9806      9803      9799      9811      9807      9799      9800      9815
      9807      9799      9811      9812      9807      9799      9811      9813
      9807      9799      9811      9814      9808      9807      9799      9811
      9809      9807      9799      9811      9810      9807      9799      9811
      9811      9799      9800      9815      9815      9821      9818      9819
      9815      9821      9818      9820      9815      9821      9818      9822
      9816      9815      9821      9818      9817      9815      9821      9818
      9818      9822      9823      9824      9818      9822      9823      9825
      9818      9822      9823      9826      9819      9818      9822      9823
      9820      9818      9822      9823      9821      9818      9822      9823
      9822      9823      9826      9827      9822      9823      9826      9828
      9822      9823      9826      9834      9823      9826      9828      9829
      9823      9826      9834      9835      9823      9826      9834      9836
      9823      9826      9834      9837      9824      9823      9826      9827
      9824      9823      9826      9828      9824      9823      9826      9834
      9825      9823      9826      9827      9825      9823      9826      9828
      9825      9823      9826      9834      9826      9828      9829      9830
      9826      9828      9829      9831      9826      9834      9837      9838
      9827      9826      9828      9829      9827      9826      9834      9835
      9827      9826      9834      9836      9827      9826      9834      9837
      9828      9826      9834      9835      9828      9826      9834      9836
      9828      9826      9834      9837      9828      9829      9831      9832
      9828      9829      9831      9833      9828      9829      9831      9843
      9829      9828      9826      9834      9829      9831      9843      9844
      9829      9831      9843      9845      9829      9831      9843      9846
      9830      9829      9831      9832      9830      9829      9831      9833
      9830      9829      9831      9843      9831      9843      9846      9847
      9831      9843      9846      9848      9831      9843      9846      9849
      9832      9831      9843      9844      9832      9831      9843      9845
      9832      9831      9843      9846      9833      9831      9843      9844
      9833      9831      9843      9845      9833      9831      9843      9846
      9834      9837      9838      9839      9834      9837      9838      9840
      9835      9834      9837      9838      9836      9834      9837      9838
      9837      9838      9840      9841      9837      9838      9840      9842
      9837      9838      9840      9890      9838      9840      9890      9891
      9838      9840      9890      9892      9838      9840      9890      9893
      9839      9838      9840      9841      9839      9838      9840      9842
      9839      9838      9840      9890      9840      9890      9893      9894
      9840      9890      9893      9895      9840      9890      9893      9896
      9841      9840      9890      9891      9841      9840      9890      9892
      9841      9840      9890      9893      9842      9840      9890      9891
      9842      9840      9890      9892      9842      9840      9890      9893
      9843      9846      9849      9850      9843      9846      9849      9851
      9843      9846      9849      9852      9844      9843      9846      9847
      9844      9843      9846      9848      9844      9843      9846      9849
      9845      9843      9846      9847      9845      9843      9846      9848
      9845      9843      9846      9849      9846      9849      9852      9853
      9846      9849      9852      9854      9846      9849      9852      9855
      9847      9846      9849      9850      9847      9846      9849      9851
      9847      9846      9849      9852      9848      9846      9849      9850
      9848      9846      9849      9851      9848      9846      9849      9852
      9849      9852      9855      9856      9849      9852      9855      9857
      9849      9852      9855      9858      9850      9849      9852      9853
      9850      9849      9852      9854      9850      9849      9852      9855
      9851      9849      9852      9853      9851      9849      9852      9854
      9851      9849      9852      9855      9852      9855      9858      9859
      9852      9855      9858      9860      9852      9855      9858      9861
      9853      9852      9855      9856      9853      9852      9855      9857
      9853      9852      9855      9858      9854      9852      9855      9856
      9854      9852      9855      9857      9854      9852      9855      9858
      9855      9858      9861      9862      9855      9858      9861      9863
      9856      9855      9858      9859      9856      9855      9858      9860
      9856      9855      9858      9861      9857      9855      9858      9859
      9857      9855      9858      9860      9857      9855      9858      9861
      9858      9861      9863      9864      9858      9861      9863      9865
      9859      9858      9861      9862      9859      9858      9861      9863
      9860      9858      9861      9862      9860      9858      9861      9863
      9861      9863      9865      9866      9861      9863      9865      9867
      9861      9863      9865      9868      9862      9861      9863      9864
      9862      9861      9863      9865      9863      9865      9868      9869
      9863      9865      9868      9870      9863      9865      9868      9871
      9864      9863      9865      9866      9864      9863      9865      9867
      9864      9863      9865      9868      9865      9868      9871      9872
      9865      9868      9871      9873      9865      9868      9871      9874
      9866      9865      9868      9869      9866      9865      9868      9870
      9866      9865      9868      9871      9867      9865      9868      9869
      9867      9865      9868      9870      9867      9865      9868      9871
      9868      9871      9874      9875      9868      9871      9874      9876
      9868      9871      9874      9877      9869      9868      9871      9872
      9869      9868      9871      9873      9869      9868      9871      9874
      9870      9868      9871      9872      9870      9868      9871      9873
      9870      9868      9871      9874      9871      9874      9877      9878
      9871      9874      9877      9879      9871      9874      9877      9880
      9872      9871      9874      9875      9872      9871      9874      9876
      9872      9871      9874      9877      9873      9871      9874      9875
      9873      9871      9874      9876      9873      9871      9874      9877
      9874      9877      9880      9881      9874      9877      9880      9882
      9874      9877      9880      9883      9875      9874      9877      9878
      9875      9874      9877      9879      9875      9874      9877      9880
      9876      9874      9877      9878      9876      9874      9877      9879
      9876      9874      9877      9880      9877      9880      9883      9884
      9877      9880      9883      9885      9877      9880      9883      9886
      9878      9877      9880      9881      9878      9877      9880      9882
      9878      9877      9880      9883      9879      9877      9880      9881
      9879      9877      9880      9882      9879      9877      9880      9883
      9880      9883      9886      9887      9880      9883      9886      9888
      9880      9883      9886      9889      9881      9880      9883      9884
      9881      9880      9883      9885      9881      9880      9883      9886
      9882      9880      9883      9884      9882      9880      9883      9885
      9882      9880      9883      9886      9884      9883      9886      9887
      9884      9883      9886      9888      9884      9883      9886      9889
      9885      9883      9886      9887      9885      9883      9886      9888
      9885      9883      9886      9889      9890      9893      9896      9897
      9890      9893      9896      9898      9890      9893      9896      9899
      9891      9890      9893      9894      9891      9890      9893      9895
      9891      9890      9893      9896      9892      9890      9893      9894
      9892      9890      9893      9895      9892      9890      9893      9896
      9893      9896      9899      9900      9893      9896      9899      9901
      9893      9896      9899      9902      9894      9893      9896      9897
      9894      9893      9896      9898      9894      9893      9896      9899
      9895      9893      9896      9897      9895      9893      9896      9898
      9895      9893      9896      9899      9896      9899      9902      9903
      9896      9899      9902      9904      9896      9899      9902      9905
      9897      9896      9899      9900      9897      9896      9899      9901
      9897      9896      9899      9902      9898      9896      9899      9900
      9898      9896      9899      9901      9898      9896      9899      9902
      9899      9902      9905      9906      9899      9902      9905      9907
      9899      9902      9905      9908      9900      9899      9902      9903
      9900      9899      9902      9904      9900      9899      9902      9905
      9901      9899      9902      9903      9901      9899      9902      9904
      9901      9899      9902      9905      9902      9905      9908      9909
      9902      9905      9908      9910      9903      9902      9905      9906
      9903      9902      9905      9907      9903      9902      9905      9908
      9904      9902      9905      9906      9904      9902      9905      9907
      9904      9902      9905      9908      9905      9908      9910      9911
      9905      9908      9910      9912      9906      9905      9908      9909
      9906      9905      9908      9910      9907      9905      9908      9909
      9907      9905      9908      9910      9908      9910      9912      9913
      9908      9910      9912      9914      9908      9910      9912      9915
      9909      9908      9910      9911      9909      9908      9910      9912
      9910      9912      9915      9916      9910      9912      9915      9917
      9910      9912      9915      9918      9911      9910      9912      9913
      9911      9910      9912      9914      9911      9910      9912      9915
      9912      9915      9918      9919      9912      9915      9918      9920
      9912      9915      9918      9921      9913      9912      9915      9916
      9913      9912      9915      9917      9913      9912      9915      9918
      9914      9912      9915      9916      9914      9912      9915      9917
      9914      9912      9915      9918      9915      9918      9921      9922
      9915      9918      9921      9923      9915      9918      9921      9924
      9916      9915      9918      9919      9916      9915      9918      9920
      9916      9915      9918      9921      9917      9915      9918      9919
      9917      9915      9918      9920      9917      9915      9918      9921
      9918      9921      9924      9925      9918      9921      9924      9926
      9918      9921      9924      9927      9919      9918      9921      9922
      9919      9918      9921      9923      9919      9918      9921      9924
      9920      9918      9921      9922      9920      9918      9921      9923
      9920      9918      9921      9924      9921      9924      9927      9928
      9921      9924      9927      9929      9921      9924      9927      9930
      9922      9921      9924      9925      9922      9921      9924      9926
      9922      9921      9924      9927      9923      9921      9924      9925
      9923      9921      9924      9926      9923      9921      9924      9927
      9924      9927      9930      9931      9924      9927      9930      9932
      9924      9927      9930      9933      9925      9924      9927      9928
      9925      9924      9927      9929      9925      9924      9927      9930
      9926      9924      9927      9928      9926      9924      9927      9929
      9926      9924      9927      9930      9927      9930      9933      9934
      9927      9930      9933      9935      9927      9930      9933      9936
      9928      9927      9930      9931      9928      9927      9930      9932
      9928      9927      9930      9933      9929      9927      9930      9931
      9929      9927      9930      9932      9929      9927      9930      9933
      9931      9930      9933      9934      9931      9930      9933      9935
      9931      9930      9933      9936      9932      9930      9933      9934
      9932      9930      9933      9935      9932      9930      9933      9936
      9937      9938      9953      9954      9937      9938      9953      9955
      9937      9938      9953      9959      9938      9937      9941      9942
      9938      9937      9941      9943      9938      9937      9941      9944
      9938      9937      9945      9946      9938      9937      9945      9947
      9938      9937      9945      9948      9938      9937      9949      9950
      9938      9937      9949      9951      9938      9937      9949      9952
      9938      9953      9959      9956      9939      9938      9937      9941
      9939      9938      9937      9945      9939      9938      9937      9949
      9939      9938      9953      9954      9939      9938      9953      9955
      9939      9938      9953      9959      9940      9938      9937      9941
      9940      9938      9937      9945      9940      9938      9937      9949
      9940      9938      9953      9954      9940      9938      9953      9955
      9940      9938      9953      9959      9941      9937      9938      9953
      9941      9937      9945      9946      9941      9937      9945      9947
      9941      9937      9945      9948      9941      9937      9949      9950
      9941      9937      9949      9951      9941      9937      9949      9952
      9942      9941      9937      9945      9942      9941      9937      9949
      9943      9941      9937      9945      9943      9941      9937      9949
      9944      9941      9937      9945      9944      9941      9937      9949
      9945      9937      9938      9953      9945      9937      9949      9950
      9945      9937      9949      9951      9945      9937      9949      9952
      9946      9945      9937      9949      9947      9945      9937      9949
      9948      9945      9937      9949      9949      9937      9938      9953
      9953      9959      9956      9957      9953      9959      9956      9958
      9953      9959      9956      9960      9954      9953      9959      9956
      9955      9953      9959      9956      9956      9960      9961      9962
      9956      9960      9961      9963      9956      9960      9961      9964
      9957      9956      9960      9961      9958      9956      9960      9961
      9959      9956      9960      9961      9960      9961      9964      9965
      9960      9961      9964      9966      9960      9961      9964      9972
      9961      9964      9966      9967      9961      9964      9972      9973
      9961      9964      9972      9974      9961      9964      9972      9975
      9962      9961      9964      9965      9962      9961      9964      9966
      9962      9961      9964      9972      9963      9961      9964      9965
      9963      9961      9964      9966      9963      9961      9964      9972
      9964      9966      9967      9968      9964      9966      9967      9969
      9964      9972      9975      9976      9965      9964      9966      9967
      9965      9964      9972      9973      9965      9964      9972      9974
      9965      9964      9972      9975      9966      9964      9972      9973
      9966      9964      9972      9974      9966      9964      9972      9975
      9966      9967      9969      9970      9966      9967      9969      9971
      9966      9967      9969      9981      9967      9966      9964      9972
      9967      9969      9981      9982      9967      9969      9981      9983
      9967      9969      9981      9984      9968      9967      9969      9970
      9968      9967      9969      9971      9968      9967      9969      9981
      9969      9981      9984      9985      9969      9981      9984      9986
      9969      9981      9984      9987      9970      9969      9981      9982
      9970      9969      9981      9983      9970      9969      9981      9984
      9971      9969      9981      9982      9971      9969      9981      9983
      9971      9969      9981      9984      9972      9975      9976      9977
      9972      9975      9976      9978      9973      9972      9975      9976
      9974      9972      9975      9976      9975      9976      9978      9979
      9975      9976      9978      9980      9975      9976      9978     10028
      9976      9978     10028     10029      9976      9978     10028     10030
      9976      9978     10028     10031      9977      9976      9978      9979
      9977      9976      9978      9980      9977      9976      9978     10028
      9978     10028     10031     10032      9978     10028     10031     10033
      9978     10028     10031     10034      9979      9978     10028     10029
      9979      9978     10028     10030      9979      9978     10028     10031
      9980      9978     10028     10029      9980      9978     10028     10030
      9980      9978     10028     10031      9981      9984      9987      9988
      9981      9984      9987      9989      9981      9984      9987      9990
      9982      9981      9984      9985      9982      9981      9984      9986
      9982      9981      9984      9987      9983      9981      9984      9985
      9983      9981      9984      9986      9983      9981      9984      9987
      9984      9987      9990      9991      9984      9987      9990      9992
      9984      9987      9990      9993      9985      9984      9987      9988
      9985      9984      9987      9989      9985      9984      9987      9990
      9986      9984      9987      9988      9986      9984      9987      9989
      9986      9984      9987      9990      9987      9990      9993      9994
      9987      9990      9993      9995      9987      9990      9993      9996
      9988      9987      9990      9991      9988      9987      9990      9992
      9988      9987      9990      9993      9989      9987      9990      9991
      9989      9987      9990      9992      9989      9987      9990      9993
      9990      9993      9996      9997      9990      9993      9996      9998
      9990      9993      9996      9999      9991      9990      9993      9994
      9991      9990      9993      9995      9991      9990      9993      9996
      9992      9990      9993      9994      9992      9990      9993      9995
      9992      9990      9993      9996      9993      9996      9999     10000
      9993      9996      9999     10001      9994      9993      9996      9997
      9994      9993      9996      9998      9994      9993      9996      9999
      9995      9993      9996      9997      9995      9993      9996      9998
      9995      9993      9996      9999      9996      9999     10001     10002
      9996      9999     10001     10003      9997      9996      9999     10000
      9997      9996      9999     10001      9998      9996      9999     10000
      9998      9996      9999     10001      9999     10001     10003     10004
      9999     10001     10003     10005      9999     10001     10003     10006
     10000      9999     10001     10002     10000      9999     10001     10003
     10001     10003     10006     10007     10001     10003     10006     10008
     10001     10003     10006     10009     10002     10001     10003     10004
     10002     10001     10003     10005     10002     10001     10003     10006
     10003     10006     10009     10010     10003     10006     10009     10011
     10003     10006     10009     10012     10004     10003     10006     10007
     10004     10003     10006     10008     10004     10003     10006     10009
     10005     10003     10006     10007     10005     10003     10006     10008
     10005     10003     10006     10009     10006     10009     10012     10013
     10006     10009     10012     10014     10006     10009     10012     10015
     10007     10006     10009     10010     10007     10006     10009     10011
     10007     10006     10009     10012     10008     10006     10009     10010
     10008     10006     10009     10011     10008     10006     10009     10012
     10009     10012     10015     10016     10009     10012     10015     10017
     10009     10012     10015     10018     10010     10009     10012     10013
     10010     10009     10012     10014     10010     10009     10012     10015
     10011     10009     10012     10013     10011     10009     10012     10014
     10011     10009     10012     10015     10012     10015     10018     10019
     10012     10015     10018     10020     10012     10015     10018     10021
     10013     10012     10015     10016     10013     10012     10015     10017
     10013     10012     10015     10018     10014     10012     10015     10016
     10014     10012     10015     10017     10014     10012     10015     10018
     10015     10018     10021     10022     10015     10018     10021     10023
     10015     10018     10021     10024     10016     10015     10018     10019
     10016     10015     10018     10020     10016     10015     10018     10021
     10017     10015     10018     10019     10017     10015     10018     10020
     10017     10015     10018     10021     10018     10021     10024     10025
     10018     10021     10024     10026     10018     10021     10024     10027
     10019     10018     10021     10022     10019     10018     10021     10023
     10019     10018     10021     10024     10020     10018     10021     10022
     10020     10018     10021     10023     10020     10018     10021     10024
     10022     10021     10024     10025     10022     10021     10024     10026
     10022     10021     10024     10027     10023     10021     10024     10025
     10023     10021     10024     10026     10023     10021     10024     10027
     10028     10031     10034     10035     10028     10031     10034     10036
     10028     10031     10034     10037     10029     10028     10031     10032
     10029     10028     10031     10033     10029     10028     10031     10034
     10030     10028     10031     10032     10030     10028     10031     10033
     10030     10028     10031     10034     10031     10034     10037     10038
     10031     10034     10037     10039     10031     10034     10037     10040
     10032     10031     10034     10035     10032     10031     10034     10036
     10032     10031     10034     10037     10033     10031     10034     10035
     10033     10031     10034     10036     10033     10031     10034     10037
     10034     10037     10040     10041     10034     10037     10040     10042
     10034     10037     10040     10043     10035     10034     10037     10038
     10035     10034     10037     10039     10035     10034     10037     10040
     10036     10034     10037     10038     10036     10034     10037     10039
     10036     10034     10037     10040     10037     10040     10043     10044
     10037     10040     10043     10045     10037     10040     10043     10046
     10038     10037     10040     10041     10038     10037     10040     10042
     10038     10037     10040     10043     10039     10037     10040     10041
     10039     10037     10040     10042     10039     10037     10040     10043
     10040     10043     10046     10047     10040     10043     10046     10048
     10041     10040     10043     10044     10041     10040     10043     10045
     10041     10040     10043     10046     10042     10040     10043     10044
     10042     10040     10043     10045     10042     10040     10043     10046
     10043     10046     10048     10049     10043     10046     10048     10050
     10044     10043     10046     10047     10044     10043     10046     10048
     10045     10043     10046     10047     10045     10043     10046     10048
     10046     10048     10050     10051     10046     10048     10050     10052
     10046     10048     10050     10053     10047     10046     10048     10049
     10047     10046     10048     10050     10048     10050     10053     10054
     10048     10050     10053     10055     10048     10050     10053     10056
     10049     10048     10050     10051     10049     10048     10050     10052
     10049     10048     10050     10053     10050     10053     10056     10057
     10050     10053     10056     10058     10050     10053     10056     10059
     10051     10050     10053     10054     10051     10050     10053     10055
     10051     10050     10053     10056     10052     10050     10053     10054
     10052     10050     10053     10055     10052     10050     10053     10056
     10053     10056     10059     10060     10053     10056     10059     10061
     10053     10056     10059     10062     10054     10053     10056     10057
     10054     10053     10056     10058     10054     10053     10056     10059
     10055     10053     10056     10057     10055     10053     10056     10058
     10055     10053     10056     10059     10056     10059     10062     10063
     10056     10059     10062     10064     10056     10059     10062     10065
     10057     10056     10059     10060     10057     10056     10059     10061
     10057     10056     10059     10062     10058     10056     10059     10060
     10058     10056     10059     10061     10058     10056     10059     10062
     10059     10062     10065     10066     10059     10062     10065     10067
     10059     10062     10065     10068     10060     10059     10062     10063
     10060     10059     10062     10064     10060     10059     10062     10065
     10061     10059     10062     10063     10061     10059     10062     10064
     10061     10059     10062     10065     10062     10065     10068     10069
     10062     10065     10068     10070     10062     10065     10068     10071
     10063     10062     10065     10066     10063     10062     10065     10067
     10063     10062     10065     10068     10064     10062     10065     10066
     10064     10062     10065     10067     10064     10062     10065     10068
     10065     10068     10071     10072     10065     10068     10071     10073
     10065     10068     10071     10074     10066     10065     10068     10069
     10066     10065     10068     10070     10066     10065     10068     10071
     10067     10065     10068     10069     10067     10065     10068     10070
     10067     10065     10068     10071     10069     10068     10071     10072
     10069     10068     10071     10073     10069     10068     10071     10074
     10070     10068     10071     10072     10070     10068     10071     10073
     10070     10068     10071     10074     10075     10076     10091     10092
     10075     10076     10091     10093     10075     10076     10091     10097
     10076     10075     10079     10080     10076     10075     10079     10081
     10076     10075     10079     10082     10076     10075     10083     10084
     10076     10075     10083     10085     10076     10075     10083     10086
     10076     10075     10087     10088     10076     10075     10087     10089
     10076     10075     10087     10090     10076     10091     10097     10094
     10077     10076     10075     10079     10077     10076     10075     10083
     10077     10076     10075     10087     10077     10076     10091     10092
     10077     10076     10091     10093     10077     10076     10091     10097
     10078     10076     10075     10079     10078     10076     10075     10083
     10078     10076     10075     10087     10078     10076     10091     10092
     10078     10076     10091     10093     10078     10076     10091     10097
     10079     10075     10076     10091     10079     10075     10083     10084
     10079     10075     10083     10085     10079     10075     10083     10086
     10079     10075     10087     10088     10079     10075     10087     10089
     10079     10075     10087     10090     10080     10079     10075     10083
     10080     10079     10075     10087     10081     10079     10075     10083
     10081     10079     10075     10087     10082     10079     10075     10083
     10082     10079     10075     10087     10083     10075     10076     10091
     10083     10075     10087     10088     10083     10075     10087     10089
     10083     10075     10087     10090     10084     10083     10075     10087
     10085     10083     10075     10087     10086     10083     10075     10087
     10087     10075     10076     10091     10091     10097     10094     10095
     10091     10097     10094     10096     10091     10097     10094     10098
     10092     10091     10097     10094     10093     10091     10097     10094
     10094     10098     10099     10100     10094     10098     10099     10101
     10094     10098     10099     10102     10095     10094     10098     10099
     10096     10094     10098     10099     10097     10094     10098     10099
     10098     10099     10102     10103     10098     10099     10102     10104
     10098     10099     10102     10110     10099     10102     10104     10105
     10099     10102     10110     10111     10099     10102     10110     10112
     10099     10102     10110     10113     10100     10099     10102     10103
     10100     10099     10102     10104     10100     10099     10102     10110
     10101     10099     10102     10103     10101     10099     10102     10104
     10101     10099     10102     10110     10102     10104     10105     10106
     10102     10104     10105     10107     10102     10110     10113     10114
     10103     10102     10104     10105     10103     10102     10110     10111
     10103     10102     10110     10112     10103     10102     10110     10113
     10104     10102     10110     10111     10104     10102     10110     10112
     10104     10102     10110     10113     10104     10105     10107     10108
     10104     10105     10107     10109     10104     10105     10107     10119
     10105     10104     10102     10110     10105     10107     10119     10120
     10105     10107     10119     10121     10105     10107     10119     10122
     10106     10105     10107     10108     10106     10105     10107     10109
     10106     10105     10107     10119     10107     10119     10122     10123
     10107     10119     10122     10124     10107     10119     10122     10125
     10108     10107     10119     10120     10108     10107     10119     10121
     10108     10107     10119     10122     10109     10107     10119     10120
     10109     10107     10119     10121     10109     10107     10119     10122
     10110     10113     10114     10115     10110     10113     10114     10116
     10111     10110     10113     10114     10112     10110     10113     10114
     10113     10114     10116     10117     10113     10114     10116     10118
     10113     10114     10116     10166     10114     10116     10166     10167
     10114     10116     10166     10168     10114     10116     10166     10169
     10115     10114     10116     10117     10115     10114     10116     10118
     10115     10114     10116     10166     10116     10166     10169     10170
     10116     10166     10169     10171     10116     10166     10169     10172
     10117     10116     10166     10167     10117     10116     10166     10168
     10117     10116     10166     10169     10118     10116     10166     10167
     10118     10116     10166     10168     10118     10116     10166     10169
     10119     10122     10125     10126     10119     10122     10125     10127
     10119     10122     10125     10128     10120     10119     10122     10123
     10120     10119     10122     10124     10120     10119     10122     10125
     10121     10119     10122     10123     10121     10119     10122     10124
     10121     10119     10122     10125     10122     10125     10128     10129
     10122     10125     10128     10130     10122     10125     10128     10131
     10123     10122     10125     10126     10123     10122     10125     10127
     10123     10122     10125     10128     10124     10122     10125     10126
     10124     10122     10125     10127     10124     10122     10125     10128
     10125     10128     10131     10132     10125     10128     10131     10133
     10125     10128     10131     10134     10126     10125     10128     10129
     10126     10125     10128     10130     10126     10125     10128     10131
     10127     10125     10128     10129     10127     10125     10128     10130
     10127     10125     10128     10131     10128     10131     10134     10135
     10128     10131     10134     10136     10128     10131     10134     10137
     10129     10128     10131     10132     10129     10128     10131     10133
     10129     10128     10131     10134     10130     10128     10131     10132
     10130     10128     10131     10133     10130     10128     10131     10134
     10131     10134     10137     10138     10131     10134     10137     10139
     10132     10131     10134     10135     10132     10131     10134     10136
     10132     10131     10134     10137     10133     10131     10134     10135
     10133     10131     10134     10136     10133     10131     10134     10137
     10134     10137     10139     10140     10134     10137     10139     10141
     10135     10134     10137     10138     10135     10134     10137     10139
     10136     10134     10137     10138     10136     10134     10137     10139
     10137     10139     10141     10142     10137     10139     10141     10143
     10137     10139     10141     10144     10138     10137     10139     10140
     10138     10137     10139     10141     10139     10141     10144     10145
     10139     10141     10144     10146     10139     10141     10144     10147
     10140     10139     10141     10142     10140     10139     10141     10143
     10140     10139     10141     10144     10141     10144     10147     10148
     10141     10144     10147     10149     10141     10144     10147     10150
     10142     10141     10144     10145     10142     10141     10144     10146
     10142     10141     10144     10147     10143     10141     10144     10145
     10143     10141     10144     10146     10143     10141     10144     10147
     10144     10147     10150     10151     10144     10147     10150     10152
     10144     10147     10150     10153     10145     10144     10147     10148
     10145     10144     10147     10149     10145     10144     10147     10150
     10146     10144     10147     10148     10146     10144     10147     10149
     10146     10144     10147     10150     10147     10150     10153     10154
     10147     10150     10153     10155     10147     10150     10153     10156
     10148     10147     10150     10151     10148     10147     10150     10152
     10148     10147     10150     10153     10149     10147     10150     10151
     10149     10147     10150     10152     10149     10147     10150     10153
     10150     10153     10156     10157     10150     10153     10156     10158
     10150     10153     10156     10159     10151     10150     10153     10154
     10151     10150     10153     10155     10151     10150     10153     10156
     10152     10150     10153     10154     10152     10150     10153     10155
     10152     10150     10153     10156     10153     10156     10159     10160
     10153     10156     10159     10161     10153     10156     10159     10162
     10154     10153     10156     10157     10154     10153     10156     10158
     10154     10153     10156     10159     10155     10153     10156     10157
     10155     10153     10156     10158     10155     10153     10156     10159
     10156     10159     10162     10163     10156     10159     10162     10164
     10156     10159     10162     10165     10157     10156     10159     10160
     10157     10156     10159     10161     10157     10156     10159     10162
     10158     10156     10159     10160     10158     10156     10159     10161
     10158     10156     10159     10162     10160     10159     10162     10163
     10160     10159     10162     10164     10160     10159     10162     10165
     10161     10159     10162     10163     10161     10159     10162     10164
     10161     10159     10162     10165     10166     10169     10172     10173
     10166     10169     10172     10174     10166     10169     10172     10175
     10167     10166     10169     10170     10167     10166     10169     10171
     10167     10166     10169     10172     10168     10166     10169     10170
     10168     10166     10169     10171     10168     10166     10169     10172
     10169     10172     10175     10176     10169     10172     10175     10177
     10169     10172     10175     10178     10170     10169     10172     10173
     10170     10169     10172     10174     10170     10169     10172     10175
     10171     10169     10172     10173     10171     10169     10172     10174
     10171     10169     10172     10175     10172     10175     10178     10179
     10172     10175     10178     10180     10172     10175     10178     10181
     10173     10172     10175     10176     10173     10172     10175     10177
     10173     10172     10175     10178     10174     10172     10175     10176
     10174     10172     10175     10177     10174     10172     10175     10178
     10175     10178     10181     10182     10175     10178     10181     10183
     10175     10178     10181     10184     10176     10175     10178     10179
     10176     10175     10178     10180     10176     10175     10178     10181
     10177     10175     10178     10179     10177     10175     10178     10180
     10177     10175     10178     10181     10178     10181     10184     10185
     10178     10181     10184     10186     10179     10178     10181     10182
     10179     10178     10181     10183     10179     10178     10181     10184
     10180     10178     10181     10182     10180     10178     10181     10183
     10180     10178     10181     10184     10181     10184     10186     10187
     10181     10184     10186     10188     10182     10181     10184     10185
     10182     10181     10184     10186     10183     10181     10184     10185
     10183     10181     10184     10186     10184     10186     10188     10189
     10184     10186     10188     10190     10184     10186     10188     10191
     10185     10184     10186     10187     10185     10184     10186     10188
     10186     10188     10191     10192     10186     10188     10191     10193
     10186     10188     10191     10194     10187     10186     10188     10189
     10187     10186     10188     10190     10187     10186     10188     10191
     10188     10191     10194     10195     10188     10191     10194     10196
     10188     10191     10194     10197     10189     10188     10191     10192
     10189     10188     10191     10193     10189     10188     10191     10194
     10190     10188     10191     10192     10190     10188     10191     10193
     10190     10188     10191     10194     10191     10194     10197     10198
     10191     10194     10197     10199     10191     10194     10197     10200
     10192     10191     10194     10195     10192     10191     10194     10196
     10192     10191     10194     10197     10193     10191     10194     10195
     10193     10191     10194     10196     10193     10191     10194     10197
     10194     10197     10200     10201     10194     10197     10200     10202
     10194     10197     10200     10203     10195     10194     10197     10198
     10195     10194     10197     10199     10195     10194     10197     10200
     10196     10194     10197     10198     10196     10194     10197     10199
     10196     10194     10197     10200     10197     10200     10203     10204
     10197     10200     10203     10205     10197     10200     10203     10206
     10198     10197     10200     10201     10198     10197     10200     10202
     10198     10197     10200     10203     10199     10197     10200     10201
     10199     10197     10200     10202     10199     10197     10200     10203
     10200     10203     10206     10207     10200     10203     10206     10208
     10200     10203     10206     10209     10201     10200     10203     10204
     10201     10200     10203     10205     10201     10200     10203     10206
     10202     10200     10203     10204     10202     10200     10203     10205
     10202     10200     10203     10206     10203     10206     10209     10210
     10203     10206     10209     10211     10203     10206     10209     10212
     10204     10203     10206     10207     10204     10203     10206     10208
     10204     10203     10206     10209     10205     10203     10206     10207
     10205     10203     10206     10208     10205     10203     10206     10209
     10207     10206     10209     10210     10207     10206     10209     10211
     10207     10206     10209     10212     10208     10206     10209     10210
     10208     10206     10209     10211     10208     10206     10209     10212
     10213     10214     10229     10230     10213     10214     10229     10231
     10213     10214     10229     10235     10214     10213     10217     10218
     10214     10213     10217     10219     10214     10213     10217     10220
     10214     10213     10221     10222     10214     10213     10221     10223
     10214     10213     10221     10224     10214     10213     10225     10226
     10214     10213     10225     10227     10214     10213     10225     10228
     10214     10229     10235     10232     10215     10214     10213     10217
     10215     10214     10213     10221     10215     10214     10213     10225
     10215     10214     10229     10230     10215     10214     10229     10231
     10215     10214     10229     10235     10216     10214     10213     10217
     10216     10214     10213     10221     10216     10214     10213     10225
     10216     10214     10229     10230     10216     10214     10229     10231
     10216     10214     10229     10235     10217     10213     10214     10229
     10217     10213     10221     10222     10217     10213     10221     10223
     10217     10213     10221     10224     10217     10213     10225     10226
     10217     10213     10225     10227     10217     10213     10225     10228
     10218     10217     10213     10221     10218     10217     10213     10225
     10219     10217     10213     10221     10219     10217     10213     10225
     10220     10217     10213     10221     10220     10217     10213     10225
     10221     10213     10214     10229     10221     10213     10225     10226
     10221     10213     10225     10227     10221     10213     10225     10228
     10222     10221     10213     10225     10223     10221     10213     10225
     10224     10221     10213     10225     10225     10213     10214     10229
     10229     10235     10232     10233     10229     10235     10232     10234
     10229     10235     10232     10236     10230     10229     10235     10232
     10231     10229     10235     10232     10232     10236     10237     10238
     10232     10236     10237     10239     10232     10236     10237     10240
     10233     10232     10236     10237     10234     10232     10236     10237
     10235     10232     10236     10237     10236     10237     10240     10241
     10236     10237     10240     10242     10236     10237     10240     10248
     10237     10240     10242     10243     10237     10240     10248     10249
     10237     10240     10248     10250     10237     10240     10248     10251
     10238     10237     10240     10241     10238     10237     10240     10242
     10238     10237     10240     10248     10239     10237     10240     10241
     10239     10237     10240     10242     10239     10237     10240     10248
     10240     10242     10243     10244     10240     10242     10243     10245
     10240     10248     10251     10252     10241     10240     10242     10243
     10241     10240     10248     10249     10241     10240     10248     10250
     10241     10240     10248     10251     10242     10240     10248     10249
     10242     10240     10248     10250     10242     10240     10248     10251
     10242     10243     10245     10246     10242     10243     10245     10247
     10242     10243     10245     10257     10243     10242     10240     10248
     10243     10245     10257     10258     10243     10245     10257     10259
     10243     10245     10257     10260     10244     10243     10245     10246
     10244     10243     10245     10247     10244     10243     10245     10257
     10245     10257     10260     10261     10245     10257     10260     10262
     10245     10257     10260     10263     10246     10245     10257     10258
     10246     10245     10257     10259     10246     10245     10257     10260
     10247     10245     10257     10258     10247     10245     10257     10259
     10247     10245     10257     10260     10248     10251     10252     10253
     10248     10251     10252     10254     10249     10248     10251     10252
     10250     10248     10251     10252     10251     10252     10254     10255
     10251     10252     10254     10256     10251     10252     10254     10304
     10252     10254     10304     10305     10252     10254     10304     10306
     10252     10254     10304     10307     10253     10252     10254     10255
     10253     10252     10254     10256     10253     10252     10254     10304
     10254     10304     10307     10308     10254     10304     10307     10309
     10254     10304     10307     10310     10255     10254     10304     10305
     10255     10254     10304     10306     10255     10254     10304     10307
     10256     10254     10304     10305     10256     10254     10304     10306
     10256     10254     10304     10307     10257     10260     10263     10264
     10257     10260     10263     10265     10257     10260     10263     10266
     10258     10257     10260     10261     10258     10257     10260     10262
     10258     10257     10260     10263     10259     10257     10260     10261
     10259     10257     10260     10262     10259     10257     10260     10263
     10260     10263     10266     10267     10260     10263     10266     10268
     10260     10263     10266     10269     10261     10260     10263     10264
     10261     10260     10263     10265     10261     10260     10263     10266
     10262     10260     10263     10264     10262     10260     10263     10265
     10262     10260     10263     10266     10263     10266     10269     10270
     10263     10266     10269     10271     10263     10266     10269     10272
     10264     10263     10266     10267     10264     10263     10266     10268
     10264     10263     10266     10269     10265     10263     10266     10267
     10265     10263     10266     10268     10265     10263     10266     10269
     10266     10269     10272     10273     10266     10269     10272     10274
     10266     10269     10272     10275     10267     10266     10269     10270
     10267     10266     10269     10271     10267     10266     10269     10272
     10268     10266     10269     10270     10268     10266     10269     10271
     10268     10266     10269     10272     10269     10272     10275     10276
     10269     10272     10275     10277     10270     10269     10272     10273
     10270     10269     10272     10274     10270     10269     10272     10275
     10271     10269     10272     10273     10271     10269     10272     10274
     10271     10269     10272     10275     10272     10275     10277     10278
     10272     10275     10277     10279     10273     10272     10275     10276
     10273     10272     10275     10277     10274     10272     10275     10276
     10274     10272     10275     10277     10275     10277     10279     10280
     10275     10277     10279     10281     10275     10277     10279     10282
     10276     10275     10277     10278     10276     10275     10277     10279
     10277     10279     10282     10283     10277     10279     10282     10284
     10277     10279     10282     10285     10278     10277     10279     10280
     10278     10277     10279     10281     10278     10277     10279     10282
     10279     10282     10285     10286     10279     10282     10285     10287
     10279     10282     10285     10288     10280     10279     10282     10283
     10280     10279     10282     10284     10280     10279     10282     10285
     10281     10279     10282     10283     10281     10279     10282     10284
     10281     10279     10282     10285     10282     10285     10288     10289
     10282     10285     10288     10290     10282     10285     10288     10291
     10283     10282     10285     10286     10283     10282     10285     10287
     10283     10282     10285     10288     10284     10282     10285     10286
     10284     10282     10285     10287     10284     10282     10285     10288
     10285     10288     10291     10292     10285     10288     10291     10293
     10285     10288     10291     10294     10286     10285     10288     10289
     10286     10285     10288     10290     10286     10285     10288     10291
     10287     10285     10288     10289     10287     10285     10288     10290
     10287     10285     10288     10291     10288     10291     10294     10295
     10288     10291     10294     10296     10288     10291     10294     10297
     10289     10288     10291     10292     10289     10288     10291     10293
     10289     10288     10291     10294     10290     10288     10291     10292
     10290     10288     10291     10293     10290     10288     10291     10294
     10291     10294     10297     10298     10291     10294     10297     10299
     10291     10294     10297     10300     10292     10291     10294     10295
     10292     10291     10294     10296     10292     10291     10294     10297
     10293     10291     10294     10295     10293     10291     10294     10296
     10293     10291     10294     10297     10294     10297     10300     10301
     10294     10297     10300     10302     10294     10297     10300     10303
     10295     10294     10297     10298     10295     10294     10297     10299
     10295     10294     10297     10300     10296     10294     10297     10298
     10296     10294     10297     10299     10296     10294     10297     10300
     10298     10297     10300     10301     10298     10297     10300     10302
     10298     10297     10300     10303     10299     10297     10300     10301
     10299     10297     10300     10302     10299     10297     10300     10303
     10304     10307     10310     10311     10304     10307     10310     10312
     10304     10307     10310     10313     10305     10304     10307     10308
     10305     10304     10307     10309     10305     10304     10307     10310
     10306     10304     10307     10308     10306     10304     10307     10309
     10306     10304     10307     10310     10307     10310     10313     10314
     10307     10310     10313     10315     10307     10310     10313     10316
     10308     10307     10310     10311     10308     10307     10310     10312
     10308     10307     10310     10313     10309     10307     10310     10311
     10309     10307     10310     10312     10309     10307     10310     10313
     10310     10313     10316     10317     10310     10313     10316     10318
     10310     10313     10316     10319     10311     10310     10313     10314
     10311     10310     10313     10315     10311     10310     10313     10316
     10312     10310     10313     10314     10312     10310     10313     10315
     10312     10310     10313     10316     10313     10316     10319     10320
     10313     10316     10319     10321     10313     10316     10319     10322
     10314     10313     10316     10317     10314     10313     10316     10318
     10314     10313     10316     10319     10315     10313     10316     10317
     10315     10313     10316     10318     10315     10313     10316     10319
     10316     10319     10322     10323     10316     10319     10322     10324
     10317     10316     10319     10320     10317     10316     10319     10321
     10317     10316     10319     10322     10318     10316     10319     10320
     10318     10316     10319     10321     10318     10316     10319     10322
     10319     10322     10324     10325     10319     10322     10324     10326
     10320     10319     10322     10323     10320     10319     10322     10324
     10321     10319     10322     10323     10321     10319     10322     10324
     10322     10324     10326     10327     10322     10324     10326     10328
     10322     10324     10326     10329     10323     10322     10324     10325
     10323     10322     10324     10326     10324     10326     10329     10330
     10324     10326     10329     10331     10324     10326     10329     10332
     10325     10324     10326     10327     10325     10324     10326     10328
     10325     10324     10326     10329     10326     10329     10332     10333
     10326     10329     10332     10334     10326     10329     10332     10335
     10327     10326     10329     10330     10327     10326     10329     10331
     10327     10326     10329     10332     10328     10326     10329     10330
     10328     10326     10329     10331     10328     10326     10329     10332
     10329     10332     10335     10336     10329     10332     10335     10337
     10329     10332     10335     10338     10330     10329     10332     10333
     10330     10329     10332     10334     10330     10329     10332     10335
     10331     10329     10332     10333     10331     10329     10332     10334
     10331     10329     10332     10335     10332     10335     10338     10339
     10332     10335     10338     10340     10332     10335     10338     10341
     10333     10332     10335     10336     10333     10332     10335     10337
     10333     10332     10335     10338     10334     10332     10335     10336
     10334     10332     10335     10337     10334     10332     10335     10338
     10335     10338     10341     10342     10335     10338     10341     10343
     10335     10338     10341     10344     10336     10335     10338     10339
     10336     10335     10338     10340     10336     10335     10338     10341
     10337     10335     10338     10339     10337     10335     10338     10340
     10337     10335     10338     10341     10338     10341     10344     10345
     10338     10341     10344     10346     10338     10341     10344     10347
     10339     10338     10341     10342     10339     10338     10341     10343
     10339     10338     10341     10344     10340     10338     10341     10342
     10340     10338     10341     10343     10340     10338     10341     10344
     10341     10344     10347     10348     10341     10344     10347     10349
     10341     10344     10347     10350     10342     10341     10344     10345
     10342     10341     10344     10346     10342     10341     10344     10347
     10343     10341     10344     10345     10343     10341     10344     10346
     10343     10341     10344     10347     10345     10344     10347     10348
     10345     10344     10347     10349     10345     10344     10347     10350
     10346     10344     10347     10348     10346     10344     10347     10349
     10346     10344     10347     10350     10351     10352     10367     10368
     10351     10352     10367     10369     10351     10352     10367     10373
     10352     10351     10355     10356     10352     10351     10355     10357
     10352     10351     10355     10358     10352     10351     10359     10360
     10352     10351     10359     10361     10352     10351     10359     10362
     10352     10351     10363     10364     10352     10351     10363     10365
     10352     10351     10363     10366     10352     10367     10373     10370
     10353     10352     10351     10355     10353     10352     10351     10359
     10353     10352     10351     10363     10353     10352     10367     10368
     10353     10352     10367     10369     10353     10352     10367     10373
     10354     10352     10351     10355     10354     10352     10351     10359
     10354     10352     10351     10363     10354     10352     10367     10368
     10354     10352     10367     10369     10354     10352     10367     10373
     10355     10351     10352     10367     10355     10351     10359     10360
     10355     10351     10359     10361     10355     10351     10359     10362
     10355     10351     10363     10364     10355     10351     10363     10365
     10355     10351     10363     10366     10356     10355     10351     10359
     10356     10355     10351     10363     10357     10355     10351     10359
     10357     10355     10351     10363     10358     10355     10351     10359
     10358     10355     10351     10363     10359     10351     10352     10367
     10359     10351     10363     10364     10359     10351     10363     10365
     10359     10351     10363     10366     10360     10359     10351     10363
     10361     10359     10351     10363     10362     10359     10351     10363
     10363     10351     10352     10367     10367     10373     10370     10371
     10367     10373     10370     10372     10367     10373     10370     10374
     10368     10367     10373     10370     10369     10367     10373     10370
     10370     10374     10375     10376     10370     10374     10375     10377
     10370     10374     10375     10378     10371     10370     10374     10375
     10372     10370     10374     10375     10373     10370     10374     10375
     10374     10375     10378     10379     10374     10375     10378     10380
     10374     10375     10378     10386     10375     10378     10380     10381
     10375     10378     10386     10387     10375     10378     10386     10388
     10375     10378     10386     10389     10376     10375     10378     10379
     10376     10375     10378     10380     10376     10375     10378     10386
     10377     10375     10378     10379     10377     10375     10378     10380
     10377     10375     10378     10386     10378     10380     10381     10382
     10378     10380     10381     10383     10378     10386     10389     10390
     10379     10378     10380     10381     10379     10378     10386     10387
     10379     10378     10386     10388     10379     10378     10386     10389
     10380     10378     10386     10387     10380     10378     10386     10388
     10380     10378     10386     10389     10380     10381     10383     10384
     10380     10381     10383     10385     10380     10381     10383     10395
     10381     10380     10378     10386     10381     10383     10395     10396
     10381     10383     10395     10397     10381     10383     10395     10398
     10382     10381     10383     10384     10382     10381     10383     10385
     10382     10381     10383     10395     10383     10395     10398     10399
     10383     10395     10398     10400     10383     10395     10398     10401
     10384     10383     10395     10396     10384     10383     10395     10397
     10384     10383     10395     10398     10385     10383     10395     10396
     10385     10383     10395     10397     10385     10383     10395     10398
     10386     10389     10390     10391     10386     10389     10390     10392
     10387     10386     10389     10390     10388     10386     10389     10390
     10389     10390     10392     10393     10389     10390     10392     10394
     10389     10390     10392     10442     10390     10392     10442     10443
     10390     10392     10442     10444     10390     10392     10442     10445
     10391     10390     10392     10393     10391     10390     10392     10394
     10391     10390     10392     10442     10392     10442     10445     10446
     10392     10442     10445     10447     10392     10442     10445     10448
     10393     10392     10442     10443     10393     10392     10442     10444
     10393     10392     10442     10445     10394     10392     10442     10443
     10394     10392     10442     10444     10394     10392     10442     10445
     10395     10398     10401     10402     10395     10398     10401     10403
     10395     10398     10401     10404     10396     10395     10398     10399
     10396     10395     10398     10400     10396     10395     10398     10401
     10397     10395     10398     10399     10397     10395     10398     10400
     10397     10395     10398     10401     10398     10401     10404     10405
     10398     10401     10404     10406     10398     10401     10404     10407
     10399     10398     10401     10402     10399     10398     10401     10403
     10399     10398     10401     10404     10400     10398     10401     10402
     10400     10398     10401     10403     10400     10398     10401     10404
     10401     10404     10407     10408     10401     10404     10407     10409
     10401     10404     10407     10410     10402     10401     10404     10405
     10402     10401     10404     10406     10402     10401     10404     10407
     10403     10401     10404     10405     10403     10401     10404     10406
     10403     10401     10404     10407     10404     10407     10410     10411
     10404     10407     10410     10412     10404     10407     10410     10413
     10405     10404     10407     10408     10405     10404     10407     10409
     10405     10404     10407     10410     10406     10404     10407     10408
     10406     10404     10407     10409     10406     10404     10407     10410
     10407     10410     10413     10414     10407     10410     10413     10415
     10408     10407     10410     10411     10408     10407     10410     10412
     10408     10407     10410     10413     10409     10407     10410     10411
     10409     10407     10410     10412     10409     10407     10410     10413
     10410     10413     10415     10416     10410     10413     10415     10417
     10411     10410     10413     10414     10411     10410     10413     10415
     10412     10410     10413     10414     10412     10410     10413     10415
     10413     10415     10417     10418     10413     10415     10417     10419
     10413     10415     10417     10420     10414     10413     10415     10416
     10414     10413     10415     10417     10415     10417     10420     10421
     10415     10417     10420     10422     10415     10417     10420     10423
     10416     10415     10417     10418     10416     10415     10417     10419
     10416     10415     10417     10420     10417     10420     10423     10424
     10417     10420     10423     10425     10417     10420     10423     10426
     10418     10417     10420     10421     10418     10417     10420     10422
     10418     10417     10420     10423     10419     10417     10420     10421
     10419     10417     10420     10422     10419     10417     10420     10423
     10420     10423     10426     10427     10420     10423     10426     10428
     10420     10423     10426     10429     10421     10420     10423     10424
     10421     10420     10423     10425     10421     10420     10423     10426
     10422     10420     10423     10424     10422     10420     10423     10425
     10422     10420     10423     10426     10423     10426     10429     10430
     10423     10426     10429     10431     10423     10426     10429     10432
     10424     10423     10426     10427     10424     10423     10426     10428
     10424     10423     10426     10429     10425     10423     10426     10427
     10425     10423     10426     10428     10425     10423     10426     10429
     10426     10429     10432     10433     10426     10429     10432     10434
     10426     10429     10432     10435     10427     10426     10429     10430
     10427     10426     10429     10431     10427     10426     10429     10432
     10428     10426     10429     10430     10428     10426     10429     10431
     10428     10426     10429     10432     10429     10432     10435     10436
     10429     10432     10435     10437     10429     10432     10435     10438
     10430     10429     10432     10433     10430     10429     10432     10434
     10430     10429     10432     10435     10431     10429     10432     10433
     10431     10429     10432     10434     10431     10429     10432     10435
     10432     10435     10438     10439     10432     10435     10438     10440
     10432     10435     10438     10441     10433     10432     10435     10436
     10433     10432     10435     10437     10433     10432     10435     10438
     10434     10432     10435     10436     10434     10432     10435     10437
     10434     10432     10435     10438     10436     10435     10438     10439
     10436     10435     10438     10440     10436     10435     10438     10441
     10437     10435     10438     10439     10437     10435     10438     10440
     10437     10435     10438     10441     10442     10445     10448     10449
     10442     10445     10448     10450     10442     10445     10448     10451
     10443     10442     10445     10446     10443     10442     10445     10447
     10443     10442     10445     10448     10444     10442     10445     10446
     10444     10442     10445     10447     10444     10442     10445     10448
     10445     10448     10451     10452     10445     10448     10451     10453
     10445     10448     10451     10454     10446     10445     10448     10449
     10446     10445     10448     10450     10446     10445     10448     10451
     10447     10445     10448     10449     10447     10445     10448     10450
     10447     10445     10448     10451     10448     10451     10454     10455
     10448     10451     10454     10456     10448     10451     10454     10457
     10449     10448     10451     10452     10449     10448     10451     10453
     10449     10448     10451     10454     10450     10448     10451     10452
     10450     10448     10451     10453     10450     10448     10451     10454
     10451     10454     10457     10458     10451     10454     10457     10459
     10451     10454     10457     10460     10452     10451     10454     10455
     10452     10451     10454     10456     10452     10451     10454     10457
     10453     10451     10454     10455     10453     10451     10454     10456
     10453     10451     10454     10457     10454     10457     10460     10461
     10454     10457     10460     10462     10455     10454     10457     10458
     10455     10454     10457     10459     10455     10454     10457     10460
     10456     10454     10457     10458     10456     10454     10457     10459
     10456     10454     10457     10460     10457     10460     10462     10463
     10457     10460     10462     10464     10458     10457     10460     10461
     10458     10457     10460     10462     10459     10457     10460     10461
     10459     10457     10460     10462     10460     10462     10464     10465
     10460     10462     10464     10466     10460     10462     10464     10467
     10461     10460     10462     10463     10461     10460     10462     10464
     10462     10464     10467     10468     10462     10464     10467     10469
     10462     10464     10467     10470     10463     10462     10464     10465
     10463     10462     10464     10466     10463     10462     10464     10467
     10464     10467     10470     10471     10464     10467     10470     10472
     10464     10467     10470     10473     10465     10464     10467     10468
     10465     10464     10467     10469     10465     10464     10467     10470
     10466     10464     10467     10468     10466     10464     10467     10469
     10466     10464     10467     10470     10467     10470     10473     10474
     10467     10470     10473     10475     10467     10470     10473     10476
     10468     10467     10470     10471     10468     10467     10470     10472
     10468     10467     10470     10473     10469     10467     10470     10471
     10469     10467     10470     10472     10469     10467     10470     10473
     10470     10473     10476     10477     10470     10473     10476     10478
     10470     10473     10476     10479     10471     10470     10473     10474
     10471     10470     10473     10475     10471     10470     10473     10476
     10472     10470     10473     10474     10472     10470     10473     10475
     10472     10470     10473     10476     10473     10476     10479     10480
     10473     10476     10479     10481     10473     10476     10479     10482
     10474     10473     10476     10477     10474     10473     10476     10478
     10474     10473     10476     10479     10475     10473     10476     10477
     10475     10473     10476     10478     10475     10473     10476     10479
     10476     10479     10482     10483     10476     10479     10482     10484
     10476     10479     10482     10485     10477     10476     10479     10480
     10477     10476     10479     10481     10477     10476     10479     10482
     10478     10476     10479     10480     10478     10476     10479     10481
     10478     10476     10479     10482     10479     10482     10485     10486
     10479     10482     10485     10487     10479     10482     10485     10488
     10480     10479     10482     10483     10480     10479     10482     10484
     10480     10479     10482     10485     10481     10479     10482     10483
     10481     10479     10482     10484     10481     10479     10482     10485
     10483     10482     10485     10486     10483     10482     10485     10487
     10483     10482     10485     10488     10484     10482     10485     10486
     10484     10482     10485     10487     10484     10482     10485     10488
     10489     10490     10505     10506     10489     10490     10505     10507
     10489     10490     10505     10511     10490     10489     10493     10494
     10490     10489     10493     10495     10490     10489     10493     10496
     10490     10489     10497     10498     10490     10489     10497     10499
     10490     10489     10497     10500     10490     10489     10501     10502
     10490     10489     10501     10503     10490     10489     10501     10504
     10490     10505     10511     10508     10491     10490     10489     10493
     10491     10490     10489     10497     10491     10490     10489     10501
     10491     10490     10505     10506     10491     10490     10505     10507
     10491     10490     10505     10511     10492     10490     10489     10493
     10492     10490     10489     10497     10492     10490     10489     10501
     10492     10490     10505     10506     10492     10490     10505     10507
     10492     10490     10505     10511     10493     10489     10490     10505
     10493     10489     10497     10498     10493     10489     10497     10499
     10493     10489     10497     10500     10493     10489     10501     10502
     10493     10489     10501     10503     10493     10489     10501     10504
     10494     10493     10489     10497     10494     10493     10489     10501
     10495     10493     10489     10497     10495     10493     10489     10501
     10496     10493     10489     10497     10496     10493     10489     10501
     10497     10489     10490     10505     10497     10489     10501     10502
     10497     10489     10501     10503     10497     10489     10501     10504
     10498     10497     10489     10501     10499     10497     10489     10501
     10500     10497     10489     10501     10501     10489     10490     10505
     10505     10511     10508     10509     10505     10511     10508     10510
     10505     10511     10508     10512     10506     10505     10511     10508
     10507     10505     10511     10508     10508     10512     10513     10514
     10508     10512     10513     10515     10508     10512     10513     10516
     10509     10508     10512     10513     10510     10508     10512     10513
     10511     10508     10512     10513     10512     10513     10516     10517
     10512     10513     10516     10518     10512     10513     10516     10524
     10513     10516     10518     10519     10513     10516     10524     10525
     10513     10516     10524     10526     10513     10516     10524     10527
     10514     10513     10516     10517     10514     10513     10516     10518
     10514     10513     10516     10524     10515     10513     10516     10517
     10515     10513     10516     10518     10515     10513     10516     10524
     10516     10518     10519     10520     10516     10518     10519     10521
     10516     10524     10527     10528     10517     10516     10518     10519
     10517     10516     10524     10525     10517     10516     10524     10526
     10517     10516     10524     10527     10518     10516     10524     10525
     10518     10516     10524     10526     10518     10516     10524     10527
     10518     10519     10521     10522     10518     10519     10521     10523
     10518     10519     10521     10533     10519     10518     10516     10524
     10519     10521     10533     10534     10519     10521     10533     10535
     10519     10521     10533     10536     10520     10519     10521     10522
     10520     10519     10521     10523     10520     10519     10521     10533
     10521     10533     10536     10537     10521     10533     10536     10538
     10521     10533     10536     10539     10522     10521     10533     10534
     10522     10521     10533     10535     10522     10521     10533     10536
     10523     10521     10533     10534     10523     10521     10533     10535
     10523     10521     10533     10536     10524     10527     10528     10529
     10524     10527     10528     10530     10525     10524     10527     10528
     10526     10524     10527     10528     10527     10528     10530     10531
     10527     10528     10530     10532     10527     10528     10530     10580
     10528     10530     10580     10581     10528     10530     10580     10582
     10528     10530     10580     10583     10529     10528     10530     10531
     10529     10528     10530     10532     10529     10528     10530     10580
     10530     10580     10583     10584     10530     10580     10583     10585
     10530     10580     10583     10586     10531     10530     10580     10581
     10531     10530     10580     10582     10531     10530     10580     10583
     10532     10530     10580     10581     10532     10530     10580     10582
     10532     10530     10580     10583     10533     10536     10539     10540
     10533     10536     10539     10541     10533     10536     10539     10542
     10534     10533     10536     10537     10534     10533     10536     10538
     10534     10533     10536     10539     10535     10533     10536     10537
     10535     10533     10536     10538     10535     10533     10536     10539
     10536     10539     10542     10543     10536     10539     10542     10544
     10536     10539     10542     10545     10537     10536     10539     10540
     10537     10536     10539     10541     10537     10536     10539     10542
     10538     10536     10539     10540     10538     10536     10539     10541
     10538     10536     10539     10542     10539     10542     10545     10546
     10539     10542     10545     10547     10539     10542     10545     10548
     10540     10539     10542     10543     10540     10539     10542     10544
     10540     10539     10542     10545     10541     10539     10542     10543
     10541     10539     10542     10544     10541     10539     10542     10545
     10542     10545     10548     10549     10542     10545     10548     10550
     10542     10545     10548     10551     10543     10542     10545     10546
     10543     10542     10545     10547     10543     10542     10545     10548
     10544     10542     10545     10546     10544     10542     10545     10547
     10544     10542     10545     10548     10545     10548     10551     10552
     10545     10548     10551     10553     10546     10545     10548     10549
     10546     10545     10548     10550     10546     10545     10548     10551
     10547     10545     10548     10549     10547     10545     10548     10550
     10547     10545     10548     10551     10548     10551     10553     10554
     10548     10551     10553     10555     10549     10548     10551     10552
     10549     10548     10551     10553     10550     10548     10551     10552
     10550     10548     10551     10553     10551     10553     10555     10556
     10551     10553     10555     10557     10551     10553     10555     10558
     10552     10551     10553     10554     10552     10551     10553     10555
     10553     10555     10558     10559     10553     10555     10558     10560
     10553     10555     10558     10561     10554     10553     10555     10556
     10554     10553     10555     10557     10554     10553     10555     10558
     10555     10558     10561     10562     10555     10558     10561     10563
     10555     10558     10561     10564     10556     10555     10558     10559
     10556     10555     10558     10560     10556     10555     10558     10561
     10557     10555     10558     10559     10557     10555     10558     10560
     10557     10555     10558     10561     10558     10561     10564     10565
     10558     10561     10564     10566     10558     10561     10564     10567
     10559     10558     10561     10562     10559     10558     10561     10563
     10559     10558     10561     10564     10560     10558     10561     10562
     10560     10558     10561     10563     10560     10558     10561     10564
     10561     10564     10567     10568     10561     10564     10567     10569
     10561     10564     10567     10570     10562     10561     10564     10565
     10562     10561     10564     10566     10562     10561     10564     10567
     10563     10561     10564     10565     10563     10561     10564     10566
     10563     10561     10564     10567     10564     10567     10570     10571
     10564     10567     10570     10572     10564     10567     10570     10573
     10565     10564     10567     10568     10565     10564     10567     10569
     10565     10564     10567     10570     10566     10564     10567     10568
     10566     10564     10567     10569     10566     10564     10567     10570
     10567     10570     10573     10574     10567     10570     10573     10575
     10567     10570     10573     10576     10568     10567     10570     10571
     10568     10567     10570     10572     10568     10567     10570     10573
     10569     10567     10570     10571     10569     10567     10570     10572
     10569     10567     10570     10573     10570     10573     10576     10577
     10570     10573     10576     10578     10570     10573     10576     10579
     10571     10570     10573     10574     10571     10570     10573     10575
     10571     10570     10573     10576     10572     10570     10573     10574
     10572     10570     10573     10575     10572     10570     10573     10576
     10574     10573     10576     10577     10574     10573     10576     10578
     10574     10573     10576     10579     10575     10573     10576     10577
     10575     10573     10576     10578     10575     10573     10576     10579
     10580     10583     10586     10587     10580     10583     10586     10588
     10580     10583     10586     10589     10581     10580     10583     10584
     10581     10580     10583     10585     10581     10580     10583     10586
     10582     10580     10583     10584     10582     10580     10583     10585
     10582     10580     10583     10586     10583     10586     10589     10590
     10583     10586     10589     10591     10583     10586     10589     10592
     10584     10583     10586     10587     10584     10583     10586     10588
     10584     10583     10586     10589     10585     10583     10586     10587
     10585     10583     10586     10588     10585     10583     10586     10589
     10586     10589     10592     10593     10586     10589     10592     10594
     10586     10589     10592     10595     10587     10586     10589     10590
     10587     10586     10589     10591     10587     10586     10589     10592
     10588     10586     10589     10590     10588     10586     10589     10591
     10588     10586     10589     10592     10589     10592     10595     10596
     10589     10592     10595     10597     10589     10592     10595     10598
     10590     10589     10592     10593     10590     10589     10592     10594
     10590     10589     10592     10595     10591     10589     10592     10593
     10591     10589     10592     10594     10591     10589     10592     10595
     10592     10595     10598     10599     10592     10595     10598     10600
     10593     10592     10595     10596     10593     10592     10595     10597
     10593     10592     10595     10598     10594     10592     10595     10596
     10594     10592     10595     10597     10594     10592     10595     10598
     10595     10598     10600     10601     10595     10598     10600     10602
     10596     10595     10598     10599     10596     10595     10598     10600
     10597     10595     10598     10599     10597     10595     10598     10600
     10598     10600     10602     10603     10598     10600     10602     10604
     10598     10600     10602     10605     10599     10598     10600     10601
     10599     10598     10600     10602     10600     10602     10605     10606
     10600     10602     10605     10607     10600     10602     10605     10608
     10601     10600     10602     10603     10601     10600     10602     10604
     10601     10600     10602     10605     10602     10605     10608     10609
     10602     10605     10608     10610     10602     10605     10608     10611
     10603     10602     10605     10606     10603     10602     10605     10607
     10603     10602     10605     10608     10604     10602     10605     10606
     10604     10602     10605     10607     10604     10602     10605     10608
     10605     10608     10611     10612     10605     10608     10611     10613
     10605     10608     10611     10614     10606     10605     10608     10609
     10606     10605     10608     10610     10606     10605     10608     10611
     10607     10605     10608     10609     10607     10605     10608     10610
     10607     10605     10608     10611     10608     10611     10614     10615
     10608     10611     10614     10616     10608     10611     10614     10617
     10609     10608     10611     10612     10609     10608     10611     10613
     10609     10608     10611     10614     10610     10608     10611     10612
     10610     10608     10611     10613     10610     10608     10611     10614
     10611     10614     10617     10618     10611     10614     10617     10619
     10611     10614     10617     10620     10612     10611     10614     10615
     10612     10611     10614     10616     10612     10611     10614     10617
     10613     10611     10614     10615     10613     10611     10614     10616
     10613     10611     10614     10617     10614     10617     10620     10621
     10614     10617     10620     10622     10614     10617     10620     10623
     10615     10614     10617     10618     10615     10614     10617     10619
     10615     10614     10617     10620     10616     10614     10617     10618
     10616     10614     10617     10619     10616     10614     10617     10620
     10617     10620     10623     10624     10617     10620     10623     10625
     10617     10620     10623     10626     10618     10617     10620     10621
     10618     10617     10620     10622     10618     10617     10620     10623
     10619     10617     10620     10621     10619     10617     10620     10622
     10619     10617     10620     10623     10621     10620     10623     10624
     10621     10620     10623     10625     10621     10620     10623     10626
     10622     10620     10623     10624     10622     10620     10623     10625
     10622     10620     10623     10626     10627     10628     10643     10644
     10627     10628     10643     10645     10627     10628     10643     10649
     10628     10627     10631     10632     10628     10627     10631     10633
     10628     10627     10631     10634     10628     10627     10635     10636
     10628     10627     10635     10637     10628     10627     10635     10638
     10628     10627     10639     10640     10628     10627     10639     10641
     10628     10627     10639     10642     10628     10643     10649     10646
     10629     10628     10627     10631     10629     10628     10627     10635
     10629     10628     10627     10639     10629     10628     10643     10644
     10629     10628     10643     10645     10629     10628     10643     10649
     10630     10628     10627     10631     10630     10628     10627     10635
     10630     10628     10627     10639     10630     10628     10643     10644
     10630     10628     10643     10645     10630     10628     10643     10649
     10631     10627     10628     10643     10631     10627     10635     10636
     10631     10627     10635     10637     10631     10627     10635     10638
     10631     10627     10639     10640     10631     10627     10639     10641
     10631     10627     10639     10642     10632     10631     10627     10635
     10632     10631     10627     10639     10633     10631     10627     10635
     10633     10631     10627     10639     10634     10631     10627     10635
     10634     10631     10627     10639     10635     10627     10628     10643
     10635     10627     10639     10640     10635     10627     10639     10641
     10635     10627     10639     10642     10636     10635     10627     10639
     10637     10635     10627     10639     10638     10635     10627     10639
     10639     10627     10628     10643     10643     10649     10646     10647
     10643     10649     10646     10648     10643     10649     10646     10650
     10644     10643     10649     10646     10645     10643     10649     10646
     10646     10650     10651     10652     10646     10650     10651     10653
     10646     10650     10651     10654     10647     10646     10650     10651
     10648     10646     10650     10651     10649     10646     10650     10651
     10650     10651     10654     10655     10650     10651     10654     10656
     10650     10651     10654     10662     10651     10654     10656     10657
     10651     10654     10662     10663     10651     10654     10662     10664
     10651     10654     10662     10665     10652     10651     10654     10655
     10652     10651     10654     10656     10652     10651     10654     10662
     10653     10651     10654     10655     10653     10651     10654     10656
     10653     10651     10654     10662     10654     10656     10657     10658
     10654     10656     10657     10659     10654     10662     10665     10666
     10655     10654     10656     10657     10655     10654     10662     10663
     10655     10654     10662     10664     10655     10654     10662     10665
     10656     10654     10662     10663     10656     10654     10662     10664
     10656     10654     10662     10665     10656     10657     10659     10660
     10656     10657     10659     10661     10656     10657     10659     10671
     10657     10656     10654     10662     10657     10659     10671     10672
     10657     10659     10671     10673     10657     10659     10671     10674
     10658     10657     10659     10660     10658     10657     10659     10661
     10658     10657     10659     10671     10659     10671     10674     10675
     10659     10671     10674     10676     10659     10671     10674     10677
     10660     10659     10671     10672     10660     10659     10671     10673
     10660     10659     10671     10674     10661     10659     10671     10672
     10661     10659     10671     10673     10661     10659     10671     10674
     10662     10665     10666     10667     10662     10665     10666     10668
     10663     10662     10665     10666     10664     10662     10665     10666
     10665     10666     10668     10669     10665     10666     10668     10670
     10665     10666     10668     10718     10666     10668     10718     10719
     10666     10668     10718     10720     10666     10668     10718     10721
     10667     10666     10668     10669     10667     10666     10668     10670
     10667     10666     10668     10718     10668     10718     10721     10722
     10668     10718     10721     10723     10668     10718     10721     10724
     10669     10668     10718     10719     10669     10668     10718     10720
     10669     10668     10718     10721     10670     10668     10718     10719
     10670     10668     10718     10720     10670     10668     10718     10721
     10671     10674     10677     10678     10671     10674     10677     10679
     10671     10674     10677     10680     10672     10671     10674     10675
     10672     10671     10674     10676     10672     10671     10674     10677
     10673     10671     10674     10675     10673     10671     10674     10676
     10673     10671     10674     10677     10674     10677     10680     10681
     10674     10677     10680     10682     10674     10677     10680     10683
     10675     10674     10677     10678     10675     10674     10677     10679
     10675     10674     10677     10680     10676     10674     10677     10678
     10676     10674     10677     10679     10676     10674     10677     10680
     10677     10680     10683     10684     10677     10680     10683     10685
     10677     10680     10683     10686     10678     10677     10680     10681
     10678     10677     10680     10682     10678     10677     10680     10683
     10679     10677     10680     10681     10679     10677     10680     10682
     10679     10677     10680     10683     10680     10683     10686     10687
     10680     10683     10686     10688     10680     10683     10686     10689
     10681     10680     10683     10684     10681     10680     10683     10685
     10681     10680     10683     10686     10682     10680     10683     10684
     10682     10680     10683     10685     10682     10680     10683     10686
     10683     10686     10689     10690     10683     10686     10689     10691
     10684     10683     10686     10687     10684     10683     10686     10688
     10684     10683     10686     10689     10685     10683     10686     10687
     10685     10683     10686     10688     10685     10683     10686     10689
     10686     10689     10691     10692     10686     10689     10691     10693
     10687     10686     10689     10690     10687     10686     10689     10691
     10688     10686     10689     10690     10688     10686     10689     10691
     10689     10691     10693     10694     10689     10691     10693     10695
     10689     10691     10693     10696     10690     10689     10691     10692
     10690     10689     10691     10693     10691     10693     10696     10697
     10691     10693     10696     10698     10691     10693     10696     10699
     10692     10691     10693     10694     10692     10691     10693     10695
     10692     10691     10693     10696     10693     10696     10699     10700
     10693     10696     10699     10701     10693     10696     10699     10702
     10694     10693     10696     10697     10694     10693     10696     10698
     10694     10693     10696     10699     10695     10693     10696     10697
     10695     10693     10696     10698     10695     10693     10696     10699
     10696     10699     10702     10703     10696     10699     10702     10704
     10696     10699     10702     10705     10697     10696     10699     10700
     10697     10696     10699     10701     10697     10696     10699     10702
     10698     10696     10699     10700     10698     10696     10699     10701
     10698     10696     10699     10702     10699     10702     10705     10706
     10699     10702     10705     10707     10699     10702     10705     10708
     10700     10699     10702     10703     10700     10699     10702     10704
     10700     10699     10702     10705     10701     10699     10702     10703
     10701     10699     10702     10704     10701     10699     10702     10705
     10702     10705     10708     10709     10702     10705     10708     10710
     10702     10705     10708     10711     10703     10702     10705     10706
     10703     10702     10705     10707     10703     10702     10705     10708
     10704     10702     10705     10706     10704     10702     10705     10707
     10704     10702     10705     10708     10705     10708     10711     10712
     10705     10708     10711     10713     10705     10708     10711     10714
     10706     10705     10708     10709     10706     10705     10708     10710
     10706     10705     10708     10711     10707     10705     10708     10709
     10707     10705     10708     10710     10707     10705     10708     10711
     10708     10711     10714     10715     10708     10711     10714     10716
     10708     10711     10714     10717     10709     10708     10711     10712
     10709     10708     10711     10713     10709     10708     10711     10714
     10710     10708     10711     10712     10710     10708     10711     10713
     10710     10708     10711     10714     10712     10711     10714     10715
     10712     10711     10714     10716     10712     10711     10714     10717
     10713     10711     10714     10715     10713     10711     10714     10716
     10713     10711     10714     10717     10718     10721     10724     10725
     10718     10721     10724     10726     10718     10721     10724     10727
     10719     10718     10721     10722     10719     10718     10721     10723
     10719     10718     10721     10724     10720     10718     10721     10722
     10720     10718     10721     10723     10720     10718     10721     10724
     10721     10724     10727     10728     10721     10724     10727     10729
     10721     10724     10727     10730     10722     10721     10724     10725
     10722     10721     10724     10726     10722     10721     10724     10727
     10723     10721     10724     10725     10723     10721     10724     10726
     10723     10721     10724     10727     10724     10727     10730     10731
     10724     10727     10730     10732     10724     10727     10730     10733
     10725     10724     10727     10728     10725     10724     10727     10729
     10725     10724     10727     10730     10726     10724     10727     10728
     10726     10724     10727     10729     10726     10724     10727     10730
     10727     10730     10733     10734     10727     10730     10733     10735
     10727     10730     10733     10736     10728     10727     10730     10731
     10728     10727     10730     10732     10728     10727     10730     10733
     10729     10727     10730     10731     10729     10727     10730     10732
     10729     10727     10730     10733     10730     10733     10736     10737
     10730     10733     10736     10738     10731     10730     10733     10734
     10731     10730     10733     10735     10731     10730     10733     10736
     10732     10730     10733     10734     10732     10730     10733     10735
     10732     10730     10733     10736     10733     10736     10738     10739
     10733     10736     10738     10740     10734     10733     10736     10737
     10734     10733     10736     10738     10735     10733     10736     10737
     10735     10733     10736     10738     10736     10738     10740     10741
     10736     10738     10740     10742     10736     10738     10740     10743
     10737     10736     10738     10739     10737     10736     10738     10740
     10738     10740     10743     10744     10738     10740     10743     10745
     10738     10740     10743     10746     10739     10738     10740     10741
     10739     10738     10740     10742     10739     10738     10740     10743
     10740     10743     10746     10747     10740     10743     10746     10748
     10740     10743     10746     10749     10741     10740     10743     10744
     10741     10740     10743     10745     10741     10740     10743     10746
     10742     10740     10743     10744     10742     10740     10743     10745
     10742     10740     10743     10746     10743     10746     10749     10750
     10743     10746     10749     10751     10743     10746     10749     10752
     10744     10743     10746     10747     10744     10743     10746     10748
     10744     10743     10746     10749     10745     10743     10746     10747
     10745     10743     10746     10748     10745     10743     10746     10749
     10746     10749     10752     10753     10746     10749     10752     10754
     10746     10749     10752     10755     10747     10746     10749     10750
     10747     10746     10749     10751     10747     10746     10749     10752
     10748     10746     10749     10750     10748     10746     10749     10751
     10748     10746     10749     10752     10749     10752     10755     10756
     10749     10752     10755     10757     10749     10752     10755     10758
     10750     10749     10752     10753     10750     10749     10752     10754
     10750     10749     10752     10755     10751     10749     10752     10753
     10751     10749     10752     10754     10751     10749     10752     10755
     10752     10755     10758     10759     10752     10755     10758     10760
     10752     10755     10758     10761     10753     10752     10755     10756
     10753     10752     10755     10757     10753     10752     10755     10758
     10754     10752     10755     10756     10754     10752     10755     10757
     10754     10752     10755     10758     10755     10758     10761     10762
     10755     10758     10761     10763     10755     10758     10761     10764
     10756     10755     10758     10759     10756     10755     10758     10760
     10756     10755     10758     10761     10757     10755     10758     10759
     10757     10755     10758     10760     10757     10755     10758     10761
     10759     10758     10761     10762     10759     10758     10761     10763
     10759     10758     10761     10764     10760     10758     10761     10762
     10760     10758     10761     10763     10760     10758     10761     10764
     10765     10766     10781     10782     10765     10766     10781     10783
     10765     10766     10781     10787     10766     10765     10769     10770
     10766     10765     10769     10771     10766     10765     10769     10772
     10766     10765     10773     10774     10766     10765     10773     10775
     10766     10765     10773     10776     10766     10765     10777     10778
     10766     10765     10777     10779     10766     10765     10777     10780
     10766     10781     10787     10784     10767     10766     10765     10769
     10767     10766     10765     10773     10767     10766     10765     10777
     10767     10766     10781     10782     10767     10766     10781     10783
     10767     10766     10781     10787     10768     10766     10765     10769
     10768     10766     10765     10773     10768     10766     10765     10777
     10768     10766     10781     10782     10768     10766     10781     10783
     10768     10766     10781     10787     10769     10765     10766     10781
     10769     10765     10773     10774     10769     10765     10773     10775
     10769     10765     10773     10776     10769     10765     10777     10778
     10769     10765     10777     10779     10769     10765     10777     10780
     10770     10769     10765     10773     10770     10769     10765     10777
     10771     10769     10765     10773     10771     10769     10765     10777
     10772     10769     10765     10773     10772     10769     10765     10777
     10773     10765     10766     10781     10773     10765     10777     10778
     10773     10765     10777     10779     10773     10765     10777     10780
     10774     10773     10765     10777     10775     10773     10765     10777
     10776     10773     10765     10777     10777     10765     10766     10781
     10781     10787     10784     10785     10781     10787     10784     10786
     10781     10787     10784     10788     10782     10781     10787     10784
     10783     10781     10787     10784     10784     10788     10789     10790
     10784     10788     10789     10791     10784     10788     10789     10792
     10785     10784     10788     10789     10786     10784     10788     10789
     10787     10784     10788     10789     10788     10789     10792     10793
     10788     10789     10792     10794     10788     10789     10792     10800
     10789     10792     10794     10795     10789     10792     10800     10801
     10789     10792     10800     10802     10789     10792     10800     10803
     10790     10789     10792     10793     10790     10789     10792     10794
     10790     10789     10792     10800     10791     10789     10792     10793
     10791     10789     10792     10794     10791     10789     10792     10800
     10792     10794     10795     10796     10792     10794     10795     10797
     10792     10800     10803     10804     10793     10792     10794     10795
     10793     10792     10800     10801     10793     10792     10800     10802
     10793     10792     10800     10803     10794     10792     10800     10801
     10794     10792     10800     10802     10794     10792     10800     10803
     10794     10795     10797     10798     10794     10795     10797     10799
     10794     10795     10797     10809     10795     10794     10792     10800
     10795     10797     10809     10810     10795     10797     10809     10811
     10795     10797     10809     10812     10796     10795     10797     10798
     10796     10795     10797     10799     10796     10795     10797     10809
     10797     10809     10812     10813     10797     10809     10812     10814
     10797     10809     10812     10815     10798     10797     10809     10810
     10798     10797     10809     10811     10798     10797     10809     10812
     10799     10797     10809     10810     10799     10797     10809     10811
     10799     10797     10809     10812     10800     10803     10804     10805
     10800     10803     10804     10806     10801     10800     10803     10804
     10802     10800     10803     10804     10803     10804     10806     10807
     10803     10804     10806     10808     10803     10804     10806     10856
     10804     10806     10856     10857     10804     10806     10856     10858
     10804     10806     10856     10859     10805     10804     10806     10807
     10805     10804     10806     10808     10805     10804     10806     10856
     10806     10856     10859     10860     10806     10856     10859     10861
     10806     10856     10859     10862     10807     10806     10856     10857
     10807     10806     10856     10858     10807     10806     10856     10859
     10808     10806     10856     10857     10808     10806     10856     10858
     10808     10806     10856     10859     10809     10812     10815     10816
     10809     10812     10815     10817     10809     10812     10815     10818
     10810     10809     10812     10813     10810     10809     10812     10814
     10810     10809     10812     10815     10811     10809     10812     10813
     10811     10809     10812     10814     10811     10809     10812     10815
     10812     10815     10818     10819     10812     10815     10818     10820
     10812     10815     10818     10821     10813     10812     10815     10816
     10813     10812     10815     10817     10813     10812     10815     10818
     10814     10812     10815     10816     10814     10812     10815     10817
     10814     10812     10815     10818     10815     10818     10821     10822
     10815     10818     10821     10823     10815     10818     10821     10824
     10816     10815     10818     10819     10816     10815     10818     10820
     10816     10815     10818     10821     10817     10815     10818     10819
     10817     10815     10818     10820     10817     10815     10818     10821
     10818     10821     10824     10825     10818     10821     10824     10826
     10818     10821     10824     10827     10819     10818     10821     10822
     10819     10818     10821     10823     10819     10818     10821     10824
     10820     10818     10821     10822     10820     10818     10821     10823
     10820     10818     10821     10824     10821     10824     10827     10828
     10821     10824     10827     10829     10822     10821     10824     10825
     10822     10821     10824     10826     10822     10821     10824     10827
     10823     10821     10824     10825     10823     10821     10824     10826
     10823     10821     10824     10827     10824     10827     10829     10830
     10824     10827     10829     10831     10825     10824     10827     10828
     10825     10824     10827     10829     10826     10824     10827     10828
     10826     10824     10827     10829     10827     10829     10831     10832
     10827     10829     10831     10833     10827     10829     10831     10834
     10828     10827     10829     10830     10828     10827     10829     10831
     10829     10831     10834     10835     10829     10831     10834     10836
     10829     10831     10834     10837     10830     10829     10831     10832
     10830     10829     10831     10833     10830     10829     10831     10834
     10831     10834     10837     10838     10831     10834     10837     10839
     10831     10834     10837     10840     10832     10831     10834     10835
     10832     10831     10834     10836     10832     10831     10834     10837
     10833     10831     10834     10835     10833     10831     10834     10836
     10833     10831     10834     10837     10834     10837     10840     10841
     10834     10837     10840     10842     10834     10837     10840     10843
     10835     10834     10837     10838     10835     10834     10837     10839
     10835     10834     10837     10840     10836     10834     10837     10838
     10836     10834     10837     10839     10836     10834     10837     10840
     10837     10840     10843     10844     10837     10840     10843     10845
     10837     10840     10843     10846     10838     10837     10840     10841
     10838     10837     10840     10842     10838     10837     10840     10843
     10839     10837     10840     10841     10839     10837     10840     10842
     10839     10837     10840     10843     10840     10843     10846     10847
     10840     10843     10846     10848     10840     10843     10846     10849
     10841     10840     10843     10844     10841     10840     10843     10845
     10841     10840     10843     10846     10842     10840     10843     10844
     10842     10840     10843     10845     10842     10840     10843     10846
     10843     10846     10849     10850     10843     10846     10849     10851
     10843     10846     10849     10852     10844     10843     10846     10847
     10844     10843     10846     10848     10844     10843     10846     10849
     10845     10843     10846     10847     10845     10843     10846     10848
     10845     10843     10846     10849     10846     10849     10852     10853
     10846     10849     10852     10854     10846     10849     10852     10855
     10847     10846     10849     10850     10847     10846     10849     10851
     10847     10846     10849     10852     10848     10846     10849     10850
     10848     10846     10849     10851     10848     10846     10849     10852
     10850     10849     10852     10853     10850     10849     10852     10854
     10850     10849     10852     10855     10851     10849     10852     10853
     10851     10849     10852     10854     10851     10849     10852     10855
     10856     10859     10862     10863     10856     10859     10862     10864
     10856     10859     10862     10865     10857     10856     10859     10860
     10857     10856     10859     10861     10857     10856     10859     10862
     10858     10856     10859     10860     10858     10856     10859     10861
     10858     10856     10859     10862     10859     10862     10865     10866
     10859     10862     10865     10867     10859     10862     10865     10868
     10860     10859     10862     10863     10860     10859     10862     10864
     10860     10859     10862     10865     10861     10859     10862     10863
     10861     10859     10862     10864     10861     10859     10862     10865
     10862     10865     10868     10869     10862     10865     10868     10870
     10862     10865     10868     10871     10863     10862     10865     10866
     10863     10862     10865     10867     10863     10862     10865     10868
     10864     10862     10865     10866     10864     10862     10865     10867
     10864     10862     10865     10868     10865     10868     10871     10872
     10865     10868     10871     10873     10865     10868     10871     10874
     10866     10865     10868     10869     10866     10865     10868     10870
     10866     10865     10868     10871     10867     10865     10868     10869
     10867     10865     10868     10870     10867     10865     10868     10871
     10868     10871     10874     10875     10868     10871     10874     10876
     10869     10868     10871     10872     10869     10868     10871     10873
     10869     10868     10871     10874     10870     10868     10871     10872
     10870     10868     10871     10873     10870     10868     10871     10874
     10871     10874     10876     10877     10871     10874     10876     10878
     10872     10871     10874     10875     10872     10871     10874     10876
     10873     10871     10874     10875     10873     10871     10874     10876
     10874     10876     10878     10879     10874     10876     10878     10880
     10874     10876     10878     10881     10875     10874     10876     10877
     10875     10874     10876     10878     10876     10878     10881     10882
     10876     10878     10881     10883     10876     10878     10881     10884
     10877     10876     10878     10879     10877     10876     10878     10880
     10877     10876     10878     10881     10878     10881     10884     10885
     10878     10881     10884     10886     10878     10881     10884     10887
     10879     10878     10881     10882     10879     10878     10881     10883
     10879     10878     10881     10884     10880     10878     10881     10882
     10880     10878     10881     10883     10880     10878     10881     10884
     10881     10884     10887     10888     10881     10884     10887     10889
     10881     10884     10887     10890     10882     10881     10884     10885
     10882     10881     10884     10886     10882     10881     10884     10887
     10883     10881     10884     10885     10883     10881     10884     10886
     10883     10881     10884     10887     10884     10887     10890     10891
     10884     10887     10890     10892     10884     10887     10890     10893
     10885     10884     10887     10888     10885     10884     10887     10889
     10885     10884     10887     10890     10886     10884     10887     10888
     10886     10884     10887     10889     10886     10884     10887     10890
     10887     10890     10893     10894     10887     10890     10893     10895
     10887     10890     10893     10896     10888     10887     10890     10891
     10888     10887     10890     10892     10888     10887     10890     10893
     10889     10887     10890     10891     10889     10887     10890     10892
     10889     10887     10890     10893     10890     10893     10896     10897
     10890     10893     10896     10898     10890     10893     10896     10899
     10891     10890     10893     10894     10891     10890     10893     10895
     10891     10890     10893     10896     10892     10890     10893     10894
     10892     10890     10893     10895     10892     10890     10893     10896
     10893     10896     10899     10900     10893     10896     10899     10901
     10893     10896     10899     10902     10894     10893     10896     10897
     10894     10893     10896     10898     10894     10893     10896     10899
     10895     10893     10896     10897     10895     10893     10896     10898
     10895     10893     10896     10899     10897     10896     10899     10900
     10897     10896     10899     10901     10897     10896     10899     10902
     10898     10896     10899     10900     10898     10896     10899     10901
     10898     10896     10899     10902     10903     10904     10919     10920
     10903     10904     10919     10921     10903     10904     10919     10925
     10904     10903     10907     10908     10904     10903     10907     10909
     10904     10903     10907     10910     10904     10903     10911     10912
     10904     10903     10911     10913     10904     10903     10911     10914
     10904     10903     10915     10916     10904     10903     10915     10917
     10904     10903     10915     10918     10904     10919     10925     10922
     10905     10904     10903     10907     10905     10904     10903     10911
     10905     10904     10903     10915     10905     10904     10919     10920
     10905     10904     10919     10921     10905     10904     10919     10925
     10906     10904     10903     10907     10906     10904     10903     10911
     10906     10904     10903     10915     10906     10904     10919     10920
     10906     10904     10919     10921     10906     10904     10919     10925
     10907     10903     10904     10919     10907     10903     10911     10912
     10907     10903     10911     10913     10907     10903     10911     10914
     10907     10903     10915     10916     10907     10903     10915     10917
     10907     10903     10915     10918     10908     10907     10903     10911
     10908     10907     10903     10915     10909     10907     10903     10911
     10909     10907     10903     10915     10910     10907     10903     10911
     10910     10907     10903     10915     10911     10903     10904     10919
     10911     10903     10915     10916     10911     10903     10915     10917
     10911     10903     10915     10918     10912     10911     10903     10915
     10913     10911     10903     10915     10914     10911     10903     10915
     10915     10903     10904     10919     10919     10925     10922     10923
     10919     10925     10922     10924     10919     10925     10922     10926
     10920     10919     10925     10922     10921     10919     10925     10922
     10922     10926     10927     10928     10922     10926     10927     10929
     10922     10926     10927     10930     10923     10922     10926     10927
     10924     10922     10926     10927     10925     10922     10926     10927
     10926     10927     10930     10931     10926     10927     10930     10932
     10926     10927     10930     10938     10927     10930     10932     10933
     10927     10930     10938     10939     10927     10930     10938     10940
     10927     10930     10938     10941     10928     10927     10930     10931
     10928     10927     10930     10932     10928     10927     10930     10938
     10929     10927     10930     10931     10929     10927     10930     10932
     10929     10927     10930     10938     10930     10932     10933     10934
     10930     10932     10933     10935     10930     10938     10941     10942
     10931     10930     10932     10933     10931     10930     10938     10939
     10931     10930     10938     10940     10931     10930     10938     10941
     10932     10930     10938     10939     10932     10930     10938     10940
     10932     10930     10938     10941     10932     10933     10935     10936
     10932     10933     10935     10937     10932     10933     10935     10947
     10933     10932     10930     10938     10933     10935     10947     10948
     10933     10935     10947     10949     10933     10935     10947     10950
     10934     10933     10935     10936     10934     10933     10935     10937
     10934     10933     10935     10947     10935     10947     10950     10951
     10935     10947     10950     10952     10935     10947     10950     10953
     10936     10935     10947     10948     10936     10935     10947     10949
     10936     10935     10947     10950     10937     10935     10947     10948
     10937     10935     10947     10949     10937     10935     10947     10950
     10938     10941     10942     10943     10938     10941     10942     10944
     10939     10938     10941     10942     10940     10938     10941     10942
     10941     10942     10944     10945     10941     10942     10944     10946
     10941     10942     10944     10994     10942     10944     10994     10995
     10942     10944     10994     10996     10942     10944     10994     10997
     10943     10942     10944     10945     10943     10942     10944     10946
     10943     10942     10944     10994     10944     10994     10997     10998
     10944     10994     10997     10999     10944     10994     10997     11000
     10945     10944     10994     10995     10945     10944     10994     10996
     10945     10944     10994     10997     10946     10944     10994     10995
     10946     10944     10994     10996     10946     10944     10994     10997
     10947     10950     10953     10954     10947     10950     10953     10955
     10947     10950     10953     10956     10948     10947     10950     10951
     10948     10947     10950     10952     10948     10947     10950     10953
     10949     10947     10950     10951     10949     10947     10950     10952
     10949     10947     10950     10953     10950     10953     10956     10957
     10950     10953     10956     10958     10950     10953     10956     10959
     10951     10950     10953     10954     10951     10950     10953     10955
     10951     10950     10953     10956     10952     10950     10953     10954
     10952     10950     10953     10955     10952     10950     10953     10956
     10953     10956     10959     10960     10953     10956     10959     10961
     10953     10956     10959     10962     10954     10953     10956     10957
     10954     10953     10956     10958     10954     10953     10956     10959
     10955     10953     10956     10957     10955     10953     10956     10958
     10955     10953     10956     10959     10956     10959     10962     10963
     10956     10959     10962     10964     10956     10959     10962     10965
     10957     10956     10959     10960     10957     10956     10959     10961
     10957     10956     10959     10962     10958     10956     10959     10960
     10958     10956     10959     10961     10958     10956     10959     10962
     10959     10962     10965     10966     10959     10962     10965     10967
     10960     10959     10962     10963     10960     10959     10962     10964
     10960     10959     10962     10965     10961     10959     10962     10963
     10961     10959     10962     10964     10961     10959     10962     10965
     10962     10965     10967     10968     10962     10965     10967     10969
     10963     10962     10965     10966     10963     10962     10965     10967
     10964     10962     10965     10966     10964     10962     10965     10967
     10965     10967     10969     10970     10965     10967     10969     10971
     10965     10967     10969     10972     10966     10965     10967     10968
     10966     10965     10967     10969     10967     10969     10972     10973
     10967     10969     10972     10974     10967     10969     10972     10975
     10968     10967     10969     10970     10968     10967     10969     10971
     10968     10967     10969     10972     10969     10972     10975     10976
     10969     10972     10975     10977     10969     10972     10975     10978
     10970     10969     10972     10973     10970     10969     10972     10974
     10970     10969     10972     10975     10971     10969     10972     10973
     10971     10969     10972     10974     10971     10969     10972     10975
     10972     10975     10978     10979     10972     10975     10978     10980
     10972     10975     10978     10981     10973     10972     10975     10976
     10973     10972     10975     10977     10973     10972     10975     10978
     10974     10972     10975     10976     10974     10972     10975     10977
     10974     10972     10975     10978     10975     10978     10981     10982
     10975     10978     10981     10983     10975     10978     10981     10984
     10976     10975     10978     10979     10976     10975     10978     10980
     10976     10975     10978     10981     10977     10975     10978     10979
     10977     10975     10978     10980     10977     10975     10978     10981
     10978     10981     10984     10985     10978     10981     10984     10986
     10978     10981     10984     10987     10979     10978     10981     10982
     10979     10978     10981     10983     10979     10978     10981     10984
     10980     10978     10981     10982     10980     10978     10981     10983
     10980     10978     10981     10984     10981     10984     10987     10988
     10981     10984     10987     10989     10981     10984     10987     10990
     10982     10981     10984     10985     10982     10981     10984     10986
     10982     10981     10984     10987     10983     10981     10984     10985
     10983     10981     10984     10986     10983     10981     10984     10987
     10984     10987     10990     10991     10984     10987     10990     10992
     10984     10987     10990     10993     10985     10984     10987     10988
     10985     10984     10987     10989     10985     10984     10987     10990
     10986     10984     10987     10988     10986     10984     10987     10989
     10986     10984     10987     10990     10988     10987     10990     10991
     10988     10987     10990     10992     10988     10987     10990     10993
     10989     10987     10990     10991     10989     10987     10990     10992
     10989     10987     10990     10993     10994     10997     11000     11001
     10994     10997     11000     11002     10994     10997     11000     11003
     10995     10994     10997     10998     10995     10994     10997     10999
     10995     10994     10997     11000     10996     10994     10997     10998
     10996     10994     10997     10999     10996     10994     10997     11000
     10997     11000     11003     11004     10997     11000     11003     11005
     10997     11000     11003     11006     10998     10997     11000     11001
     10998     10997     11000     11002     10998     10997     11000     11003
     10999     10997     11000     11001     10999     10997     11000     11002
     10999     10997     11000     11003     11000     11003     11006     11007
     11000     11003     11006     11008     11000     11003     11006     11009
     11001     11000     11003     11004     11001     11000     11003     11005
     11001     11000     11003     11006     11002     11000     11003     11004
     11002     11000     11003     11005     11002     11000     11003     11006
     11003     11006     11009     11010     11003     11006     11009     11011
     11003     11006     11009     11012     11004     11003     11006     11007
     11004     11003     11006     11008     11004     11003     11006     11009
     11005     11003     11006     11007     11005     11003     11006     11008
     11005     11003     11006     11009     11006     11009     11012     11013
     11006     11009     11012     11014     11007     11006     11009     11010
     11007     11006     11009     11011     11007     11006     11009     11012
     11008     11006     11009     11010     11008     11006     11009     11011
     11008     11006     11009     11012     11009     11012     11014     11015
     11009     11012     11014     11016     11010     11009     11012     11013
     11010     11009     11012     11014     11011     11009     11012     11013
     11011     11009     11012     11014     11012     11014     11016     11017
     11012     11014     11016     11018     11012     11014     11016     11019
     11013     11012     11014     11015     11013     11012     11014     11016
     11014     11016     11019     11020     11014     11016     11019     11021
     11014     11016     11019     11022     11015     11014     11016     11017
     11015     11014     11016     11018     11015     11014     11016     11019
     11016     11019     11022     11023     11016     11019     11022     11024
     11016     11019     11022     11025     11017     11016     11019     11020
     11017     11016     11019     11021     11017     11016     11019     11022
     11018     11016     11019     11020     11018     11016     11019     11021
     11018     11016     11019     11022     11019     11022     11025     11026
     11019     11022     11025     11027     11019     11022     11025     11028
     11020     11019     11022     11023     11020     11019     11022     11024
     11020     11019     11022     11025     11021     11019     11022     11023
     11021     11019     11022     11024     11021     11019     11022     11025
     11022     11025     11028     11029     11022     11025     11028     11030
     11022     11025     11028     11031     11023     11022     11025     11026
     11023     11022     11025     11027     11023     11022     11025     11028
     11024     11022     11025     11026     11024     11022     11025     11027
     11024     11022     11025     11028     11025     11028     11031     11032
     11025     11028     11031     11033     11025     11028     11031     11034
     11026     11025     11028     11029     11026     11025     11028     11030
     11026     11025     11028     11031     11027     11025     11028     11029
     11027     11025     11028     11030     11027     11025     11028     11031
     11028     11031     11034     11035     11028     11031     11034     11036
     11028     11031     11034     11037     11029     11028     11031     11032
     11029     11028     11031     11033     11029     11028     11031     11034
     11030     11028     11031     11032     11030     11028     11031     11033
     11030     11028     11031     11034     11031     11034     11037     11038
     11031     11034     11037     11039     11031     11034     11037     11040
     11032     11031     11034     11035     11032     11031     11034     11036
     11032     11031     11034     11037     11033     11031     11034     11035
     11033     11031     11034     11036     11033     11031     11034     11037
     11035     11034     11037     11038     11035     11034     11037     11039
     11035     11034     11037     11040     11036     11034     11037     11038
     11036     11034     11037     11039     11036     11034     11037     11040
     11041     11042     11057     11058     11041     11042     11057     11059
     11041     11042     11057     11063     11042     11041     11045     11046
     11042     11041     11045     11047     11042     11041     11045     11048
     11042     11041     11049     11050     11042     11041     11049     11051
     11042     11041     11049     11052     11042     11041     11053     11054
     11042     11041     11053     11055     11042     11041     11053     11056
     11042     11057     11063     11060     11043     11042     11041     11045
     11043     11042     11041     11049     11043     11042     11041     11053
     11043     11042     11057     11058     11043     11042     11057     11059
     11043     11042     11057     11063     11044     11042     11041     11045
     11044     11042     11041     11049     11044     11042     11041     11053
     11044     11042     11057     11058     11044     11042     11057     11059
     11044     11042     11057     11063     11045     11041     11042     11057
     11045     11041     11049     11050     11045     11041     11049     11051
     11045     11041     11049     11052     11045     11041     11053     11054
     11045     11041     11053     11055     11045     11041     11053     11056
     11046     11045     11041     11049     11046     11045     11041     11053
     11047     11045     11041     11049     11047     11045     11041     11053
     11048     11045     11041     11049     11048     11045     11041     11053
     11049     11041     11042     11057     11049     11041     11053     11054
     11049     11041     11053     11055     11049     11041     11053     11056
     11050     11049     11041     11053     11051     11049     11041     11053
     11052     11049     11041     11053     11053     11041     11042     11057
     11057     11063     11060     11061     11057     11063     11060     11062
     11057     11063     11060     11064     11058     11057     11063     11060
     11059     11057     11063     11060     11060     11064     11065     11066
     11060     11064     11065     11067     11060     11064     11065     11068
     11061     11060     11064     11065     11062     11060     11064     11065
     11063     11060     11064     11065     11064     11065     11068     11069
     11064     11065     11068     11070     11064     11065     11068     11076
     11065     11068     11070     11071     11065     11068     11076     11077
     11065     11068     11076     11078     11065     11068     11076     11079
     11066     11065     11068     11069     11066     11065     11068     11070
     11066     11065     11068     11076     11067     11065     11068     11069
     11067     11065     11068     11070     11067     11065     11068     11076
     11068     11070     11071     11072     11068     11070     11071     11073
     11068     11076     11079     11080     11069     11068     11070     11071
     11069     11068     11076     11077     11069     11068     11076     11078
     11069     11068     11076     11079     11070     11068     11076     11077
     11070     11068     11076     11078     11070     11068     11076     11079
     11070     11071     11073     11074     11070     11071     11073     11075
     11070     11071     11073     11085     11071     11070     11068     11076
     11071     11073     11085     11086     11071     11073     11085     11087
     11071     11073     11085     11088     11072     11071     11073     11074
     11072     11071     11073     11075     11072     11071     11073     11085
     11073     11085     11088     11089     11073     11085     11088     11090
     11073     11085     11088     11091     11074     11073     11085     11086
     11074     11073     11085     11087     11074     11073     11085     11088
     11075     11073     11085     11086     11075     11073     11085     11087
     11075     11073     11085     11088     11076     11079     11080     11081
     11076     11079     11080     11082     11077     11076     11079     11080
     11078     11076     11079     11080     11079     11080     11082     11083
     11079     11080     11082     11084     11079     11080     11082     11132
     11080     11082     11132     11133     11080     11082     11132     11134
     11080     11082     11132     11135     11081     11080     11082     11083
     11081     11080     11082     11084     11081     11080     11082     11132
     11082     11132     11135     11136     11082     11132     11135     11137
     11082     11132     11135     11138     11083     11082     11132     11133
     11083     11082     11132     11134     11083     11082     11132     11135
     11084     11082     11132     11133     11084     11082     11132     11134
     11084     11082     11132     11135     11085     11088     11091     11092
     11085     11088     11091     11093     11085     11088     11091     11094
     11086     11085     11088     11089     11086     11085     11088     11090
     11086     11085     11088     11091     11087     11085     11088     11089
     11087     11085     11088     11090     11087     11085     11088     11091
     11088     11091     11094     11095     11088     11091     11094     11096
     11088     11091     11094     11097     11089     11088     11091     11092
     11089     11088     11091     11093     11089     11088     11091     11094
     11090     11088     11091     11092     11090     11088     11091     11093
     11090     11088     11091     11094     11091     11094     11097     11098
     11091     11094     11097     11099     11091     11094     11097     11100
     11092     11091     11094     11095     11092     11091     11094     11096
     11092     11091     11094     11097     11093     11091     11094     11095
     11093     11091     11094     11096     11093     11091     11094     11097
     11094     11097     11100     11101     11094     11097     11100     11102
     11094     11097     11100     11103     11095     11094     11097     11098
     11095     11094     11097     11099     11095     11094     11097     11100
     11096     11094     11097     11098     11096     11094     11097     11099
     11096     11094     11097     11100     11097     11100     11103     11104
     11097     11100     11103     11105     11098     11097     11100     11101
     11098     11097     11100     11102     11098     11097     11100     11103
     11099     11097     11100     11101     11099     11097     11100     11102
     11099     11097     11100     11103     11100     11103     11105     11106
     11100     11103     11105     11107     11101     11100     11103     11104
     11101     11100     11103     11105     11102     11100     11103     11104
     11102     11100     11103     11105     11103     11105     11107     11108
     11103     11105     11107     11109     11103     11105     11107     11110
     11104     11103     11105     11106     11104     11103     11105     11107
     11105     11107     11110     11111     11105     11107     11110     11112
     11105     11107     11110     11113     11106     11105     11107     11108
     11106     11105     11107     11109     11106     11105     11107     11110
     11107     11110     11113     11114     11107     11110     11113     11115
     11107     11110     11113     11116     11108     11107     11110     11111
     11108     11107     11110     11112     11108     11107     11110     11113
     11109     11107     11110     11111     11109     11107     11110     11112
     11109     11107     11110     11113     11110     11113     11116     11117
     11110     11113     11116     11118     11110     11113     11116     11119
     11111     11110     11113     11114     11111     11110     11113     11115
     11111     11110     11113     11116     11112     11110     11113     11114
     11112     11110     11113     11115     11112     11110     11113     11116
     11113     11116     11119     11120     11113     11116     11119     11121
     11113     11116     11119     11122     11114     11113     11116     11117
     11114     11113     11116     11118     11114     11113     11116     11119
     11115     11113     11116     11117     11115     11113     11116     11118
     11115     11113     11116     11119     11116     11119     11122     11123
     11116     11119     11122     11124     11116     11119     11122     11125
     11117     11116     11119     11120     11117     11116     11119     11121
     11117     11116     11119     11122     11118     11116     11119     11120
     11118     11116     11119     11121     11118     11116     11119     11122
     11119     11122     11125     11126     11119     11122     11125     11127
     11119     11122     11125     11128     11120     11119     11122     11123
     11120     11119     11122     11124     11120     11119     11122     11125
     11121     11119     11122     11123     11121     11119     11122     11124
     11121     11119     11122     11125     11122     11125     11128     11129
     11122     11125     11128     11130     11122     11125     11128     11131
     11123     11122     11125     11126     11123     11122     11125     11127
     11123     11122     11125     11128     11124     11122     11125     11126
     11124     11122     11125     11127     11124     11122     11125     11128
     11126     11125     11128     11129     11126     11125     11128     11130
     11126     11125     11128     11131     11127     11125     11128     11129
     11127     11125     11128     11130     11127     11125     11128     11131
     11132     11135     11138     11139     11132     11135     11138     11140
     11132     11135     11138     11141     11133     11132     11135     11136
     11133     11132     11135     11137     11133     11132     11135     11138
     11134     11132     11135     11136     11134     11132     11135     11137
     11134     11132     11135     11138     11135     11138     11141     11142
     11135     11138     11141     11143     11135     11138     11141     11144
     11136     11135     11138     11139     11136     11135     11138     11140
     11136     11135     11138     11141     11137     11135     11138     11139
     11137     11135     11138     11140     11137     11135     11138     11141
     11138     11141     11144     11145     11138     11141     11144     11146
     11138     11141     11144     11147     11139     11138     11141     11142
     11139     11138     11141     11143     11139     11138     11141     11144
     11140     11138     11141     11142     11140     11138     11141     11143
     11140     11138     11141     11144     11141     11144     11147     11148
     11141     11144     11147     11149     11141     11144     11147     11150
     11142     11141     11144     11145     11142     11141     11144     11146
     11142     11141     11144     11147     11143     11141     11144     11145
     11143     11141     11144     11146     11143     11141     11144     11147
     11144     11147     11150     11151     11144     11147     11150     11152
     11145     11144     11147     11148     11145     11144     11147     11149
     11145     11144     11147     11150     11146     11144     11147     11148
     11146     11144     11147     11149     11146     11144     11147     11150
     11147     11150     11152     11153     11147     11150     11152     11154
     11148     11147     11150     11151     11148     11147     11150     11152
     11149     11147     11150     11151     11149     11147     11150     11152
     11150     11152     11154     11155     11150     11152     11154     11156
     11150     11152     11154     11157     11151     11150     11152     11153
     11151     11150     11152     11154     11152     11154     11157     11158
     11152     11154     11157     11159     11152     11154     11157     11160
     11153     11152     11154     11155     11153     11152     11154     11156
     11153     11152     11154     11157     11154     11157     11160     11161
     11154     11157     11160     11162     11154     11157     11160     11163
     11155     11154     11157     11158     11155     11154     11157     11159
     11155     11154     11157     11160     11156     11154     11157     11158
     11156     11154     11157     11159     11156     11154     11157     11160
     11157     11160     11163     11164     11157     11160     11163     11165
     11157     11160     11163     11166     11158     11157     11160     11161
     11158     11157     11160     11162     11158     11157     11160     11163
     11159     11157     11160     11161     11159     11157     11160     11162
     11159     11157     11160     11163     11160     11163     11166     11167
     11160     11163     11166     11168     11160     11163     11166     11169
     11161     11160     11163     11164     11161     11160     11163     11165
     11161     11160     11163     11166     11162     11160     11163     11164
     11162     11160     11163     11165     11162     11160     11163     11166
     11163     11166     11169     11170     11163     11166     11169     11171
     11163     11166     11169     11172     11164     11163     11166     11167
     11164     11163     11166     11168     11164     11163     11166     11169
     11165     11163     11166     11167     11165     11163     11166     11168
     11165     11163     11166     11169     11166     11169     11172     11173
     11166     11169     11172     11174     11166     11169     11172     11175
     11167     11166     11169     11170     11167     11166     11169     11171
     11167     11166     11169     11172     11168     11166     11169     11170
     11168     11166     11169     11171     11168     11166     11169     11172
     11169     11172     11175     11176     11169     11172     11175     11177
     11169     11172     11175     11178     11170     11169     11172     11173
     11170     11169     11172     11174     11170     11169     11172     11175
     11171     11169     11172     11173     11171     11169     11172     11174
     11171     11169     11172     11175     11173     11172     11175     11176
     11173     11172     11175     11177     11173     11172     11175     11178
     11174     11172     11175     11176     11174     11172     11175     11177
     11174     11172     11175     11178     11179     11180     11195     11196
     11179     11180     11195     11197     11179     11180     11195     11201
     11180     11179     11183     11184     11180     11179     11183     11185
     11180     11179     11183     11186     11180     11179     11187     11188
     11180     11179     11187     11189     11180     11179     11187     11190
     11180     11179     11191     11192     11180     11179     11191     11193
     11180     11179     11191     11194     11180     11195     11201     11198
     11181     11180     11179     11183     11181     11180     11179     11187
     11181     11180     11179     11191     11181     11180     11195     11196
     11181     11180     11195     11197     11181     11180     11195     11201
     11182     11180     11179     11183     11182     11180     11179     11187
     11182     11180     11179     11191     11182     11180     11195     11196
     11182     11180     11195     11197     11182     11180     11195     11201
     11183     11179     11180     11195     11183     11179     11187     11188
     11183     11179     11187     11189     11183     11179     11187     11190
     11183     11179     11191     11192     11183     11179     11191     11193
     11183     11179     11191     11194     11184     11183     11179     11187
     11184     11183     11179     11191     11185     11183     11179     11187
     11185     11183     11179     11191     11186     11183     11179     11187
     11186     11183     11179     11191     11187     11179     11180     11195
     11187     11179     11191     11192     11187     11179     11191     11193
     11187     11179     11191     11194     11188     11187     11179     11191
     11189     11187     11179     11191     11190     11187     11179     11191
     11191     11179     11180     11195     11195     11201     11198     11199
     11195     11201     11198     11200     11195     11201     11198     11202
     11196     11195     11201     11198     11197     11195     11201     11198
     11198     11202     11203     11204     11198     11202     11203     11205
     11198     11202     11203     11206     11199     11198     11202     11203
     11200     11198     11202     11203     11201     11198     11202     11203
     11202     11203     11206     11207     11202     11203     11206     11208
     11202     11203     11206     11214     11203     11206     11208     11209
     11203     11206     11214     11215     11203     11206     11214     11216
     11203     11206     11214     11217     11204     11203     11206     11207
     11204     11203     11206     11208     11204     11203     11206     11214
     11205     11203     11206     11207     11205     11203     11206     11208
     11205     11203     11206     11214     11206     11208     11209     11210
     11206     11208     11209     11211     11206     11214     11217     11218
     11207     11206     11208     11209     11207     11206     11214     11215
     11207     11206     11214     11216     11207     11206     11214     11217
     11208     11206     11214     11215     11208     11206     11214     11216
     11208     11206     11214     11217     11208     11209     11211     11212
     11208     11209     11211     11213     11208     11209     11211     11223
     11209     11208     11206     11214     11209     11211     11223     11224
     11209     11211     11223     11225     11209     11211     11223     11226
     11210     11209     11211     11212     11210     11209     11211     11213
     11210     11209     11211     11223     11211     11223     11226     11227
     11211     11223     11226     11228     11211     11223     11226     11229
     11212     11211     11223     11224     11212     11211     11223     11225
     11212     11211     11223     11226     11213     11211     11223     11224
     11213     11211     11223     11225     11213     11211     11223     11226
     11214     11217     11218     11219     11214     11217     11218     11220
     11215     11214     11217     11218     11216     11214     11217     11218
     11217     11218     11220     11221     11217     11218     11220     11222
     11217     11218     11220     11270     11218     11220     11270     11271
     11218     11220     11270     11272     11218     11220     11270     11273
     11219     11218     11220     11221     11219     11218     11220     11222
     11219     11218     11220     11270     11220     11270     11273     11274
     11220     11270     11273     11275     11220     11270     11273     11276
     11221     11220     11270     11271     11221     11220     11270     11272
     11221     11220     11270     11273     11222     11220     11270     11271
     11222     11220     11270     11272     11222     11220     11270     11273
     11223     11226     11229     11230     11223     11226     11229     11231
     11223     11226     11229     11232     11224     11223     11226     11227
     11224     11223     11226     11228     11224     11223     11226     11229
     11225     11223     11226     11227     11225     11223     11226     11228
     11225     11223     11226     11229     11226     11229     11232     11233
     11226     11229     11232     11234     11226     11229     11232     11235
     11227     11226     11229     11230     11227     11226     11229     11231
     11227     11226     11229     11232     11228     11226     11229     11230
     11228     11226     11229     11231     11228     11226     11229     11232
     11229     11232     11235     11236     11229     11232     11235     11237
     11229     11232     11235     11238     11230     11229     11232     11233
     11230     11229     11232     11234     11230     11229     11232     11235
     11231     11229     11232     11233     11231     11229     11232     11234
     11231     11229     11232     11235     11232     11235     11238     11239
     11232     11235     11238     11240     11232     11235     11238     11241
     11233     11232     11235     11236     11233     11232     11235     11237
     11233     11232     11235     11238     11234     11232     11235     11236
     11234     11232     11235     11237     11234     11232     11235     11238
     11235     11238     11241     11242     11235     11238     11241     11243
     11236     11235     11238     11239     11236     11235     11238     11240
     11236     11235     11238     11241     11237     11235     11238     11239
     11237     11235     11238     11240     11237     11235     11238     11241
     11238     11241     11243     11244     11238     11241     11243     11245
     11239     11238     11241     11242     11239     11238     11241     11243
     11240     11238     11241     11242     11240     11238     11241     11243
     11241     11243     11245     11246     11241     11243     11245     11247
     11241     11243     11245     11248     11242     11241     11243     11244
     11242     11241     11243     11245     11243     11245     11248     11249
     11243     11245     11248     11250     11243     11245     11248     11251
     11244     11243     11245     11246     11244     11243     11245     11247
     11244     11243     11245     11248     11245     11248     11251     11252
     11245     11248     11251     11253     11245     11248     11251     11254
     11246     11245     11248     11249     11246     11245     11248     11250
     11246     11245     11248     11251     11247     11245     11248     11249
     11247     11245     11248     11250     11247     11245     11248     11251
     11248     11251     11254     11255     11248     11251     11254     11256
     11248     11251     11254     11257     11249     11248     11251     11252
     11249     11248     11251     11253     11249     11248     11251     11254
     11250     11248     11251     11252     11250     11248     11251     11253
     11250     11248     11251     11254     11251     11254     11257     11258
     11251     11254     11257     11259     11251     11254     11257     11260
     11252     11251     11254     11255     11252     11251     11254     11256
     11252     11251     11254     11257     11253     11251     11254     11255
     11253     11251     11254     11256     11253     11251     11254     11257
     11254     11257     11260     11261     11254     11257     11260     11262
     11254     11257     11260     11263     11255     11254     11257     11258
     11255     11254     11257     11259     11255     11254     11257     11260
     11256     11254     11257     11258     11256     11254     11257     11259
     11256     11254     11257     11260     11257     11260     11263     11264
     11257     11260     11263     11265     11257     11260     11263     11266
     11258     11257     11260     11261     11258     11257     11260     11262
     11258     11257     11260     11263     11259     11257     11260     11261
     11259     11257     11260     11262     11259     11257     11260     11263
     11260     11263     11266     11267     11260     11263     11266     11268
     11260     11263     11266     11269     11261     11260     11263     11264
     11261     11260     11263     11265     11261     11260     11263     11266
     11262     11260     11263     11264     11262     11260     11263     11265
     11262     11260     11263     11266     11264     11263     11266     11267
     11264     11263     11266     11268     11264     11263     11266     11269
     11265     11263     11266     11267     11265     11263     11266     11268
     11265     11263     11266     11269     11270     11273     11276     11277
     11270     11273     11276     11278     11270     11273     11276     11279
     11271     11270     11273     11274     11271     11270     11273     11275
     11271     11270     11273     11276     11272     11270     11273     11274
     11272     11270     11273     11275     11272     11270     11273     11276
     11273     11276     11279     11280     11273     11276     11279     11281
     11273     11276     11279     11282     11274     11273     11276     11277
     11274     11273     11276     11278     11274     11273     11276     11279
     11275     11273     11276     11277     11275     11273     11276     11278
     11275     11273     11276     11279     11276     11279     11282     11283
     11276     11279     11282     11284     11276     11279     11282     11285
     11277     11276     11279     11280     11277     11276     11279     11281
     11277     11276     11279     11282     11278     11276     11279     11280
     11278     11276     11279     11281     11278     11276     11279     11282
     11279     11282     11285     11286     11279     11282     11285     11287
     11279     11282     11285     11288     11280     11279     11282     11283
     11280     11279     11282     11284     11280     11279     11282     11285
     11281     11279     11282     11283     11281     11279     11282     11284
     11281     11279     11282     11285     11282     11285     11288     11289
     11282     11285     11288     11290     11283     11282     11285     11286
     11283     11282     11285     11287     11283     11282     11285     11288
     11284     11282     11285     11286     11284     11282     11285     11287
     11284     11282     11285     11288     11285     11288     11290     11291
     11285     11288     11290     11292     11286     11285     11288     11289
     11286     11285     11288     11290     11287     11285     11288     11289
     11287     11285     11288     11290     11288     11290     11292     11293
     11288     11290     11292     11294     11288     11290     11292     11295
     11289     11288     11290     11291     11289     11288     11290     11292
     11290     11292     11295     11296     11290     11292     11295     11297
     11290     11292     11295     11298     11291     11290     11292     11293
     11291     11290     11292     11294     11291     11290     11292     11295
     11292     11295     11298     11299     11292     11295     11298     11300
     11292     11295     11298     11301     11293     11292     11295     11296
     11293     11292     11295     11297     11293     11292     11295     11298
     11294     11292     11295     11296     11294     11292     11295     11297
     11294     11292     11295     11298     11295     11298     11301     11302
     11295     11298     11301     11303     11295     11298     11301     11304
     11296     11295     11298     11299     11296     11295     11298     11300
     11296     11295     11298     11301     11297     11295     11298     11299
     11297     11295     11298     11300     11297     11295     11298     11301
     11298     11301     11304     11305     11298     11301     11304     11306
     11298     11301     11304     11307     11299     11298     11301     11302
     11299     11298     11301     11303     11299     11298     11301     11304
     11300     11298     11301     11302     11300     11298     11301     11303
     11300     11298     11301     11304     11301     11304     11307     11308
     11301     11304     11307     11309     11301     11304     11307     11310
     11302     11301     11304     11305     11302     11301     11304     11306
     11302     11301     11304     11307     11303     11301     11304     11305
     11303     11301     11304     11306     11303     11301     11304     11307
     11304     11307     11310     11311     11304     11307     11310     11312
     11304     11307     11310     11313     11305     11304     11307     11308
     11305     11304     11307     11309     11305     11304     11307     11310
     11306     11304     11307     11308     11306     11304     11307     11309
     11306     11304     11307     11310     11307     11310     11313     11314
     11307     11310     11313     11315     11307     11310     11313     11316
     11308     11307     11310     11311     11308     11307     11310     11312
     11308     11307     11310     11313     11309     11307     11310     11311
     11309     11307     11310     11312     11309     11307     11310     11313
     11311     11310     11313     11314     11311     11310     11313     11315
     11311     11310     11313     11316     11312     11310     11313     11314
     11312     11310     11313     11315     11312     11310     11313     11316
     11317     11318     11333     11334     11317     11318     11333     11335
     11317     11318     11333     11339     11318     11317     11321     11322
     11318     11317     11321     11323     11318     11317     11321     11324
     11318     11317     11325     11326     11318     11317     11325     11327
     11318     11317     11325     11328     11318     11317     11329     11330
     11318     11317     11329     11331     11318     11317     11329     11332
     11318     11333     11339     11336     11319     11318     11317     11321
     11319     11318     11317     11325     11319     11318     11317     11329
     11319     11318     11333     11334     11319     11318     11333     11335
     11319     11318     11333     11339     11320     11318     11317     11321
     11320     11318     11317     11325     11320     11318     11317     11329
     11320     11318     11333     11334     11320     11318     11333     11335
     11320     11318     11333     11339     11321     11317     11318     11333
     11321     11317     11325     11326     11321     11317     11325     11327
     11321     11317     11325     11328     11321     11317     11329     11330
     11321     11317     11329     11331     11321     11317     11329     11332
     11322     11321     11317     11325     11322     11321     11317     11329
     11323     11321     11317     11325     11323     11321     11317     11329
     11324     11321     11317     11325     11324     11321     11317     11329
     11325     11317     11318     11333     11325     11317     11329     11330
     11325     11317     11329     11331     11325     11317     11329     11332
     11326     11325     11317     11329     11327     11325     11317     11329
     11328     11325     11317     11329     11329     11317     11318     11333
     11333     11339     11336     11337     11333     11339     11336     11338
     11333     11339     11336     11340     11334     11333     11339     11336
     11335     11333     11339     11336     11336     11340     11341     11342
     11336     11340     11341     11343     11336     11340     11341     11344
     11337     11336     11340     11341     11338     11336     11340     11341
     11339     11336     11340     11341     11340     11341     11344     11345
     11340     11341     11344     11346     11340     11341     11344     11352
     11341     11344     11346     11347     11341     11344     11352     11353
     11341     11344     11352     11354     11341     11344     11352     11355
     11342     11341     11344     11345     11342     11341     11344     11346
     11342     11341     11344     11352     11343     11341     11344     11345
     11343     11341     11344     11346     11343     11341     11344     11352
     11344     11346     11347     11348     11344     11346     11347     11349
     11344     11352     11355     11356     11345     11344     11346     11347
     11345     11344     11352     11353     11345     11344     11352     11354
     11345     11344     11352     11355     11346     11344     11352     11353
     11346     11344     11352     11354     11346     11344     11352     11355
     11346     11347     11349     11350     11346     11347     11349     11351
     11346     11347     11349     11361     11347     11346     11344     11352
     11347     11349     11361     11362     11347     11349     11361     11363
     11347     11349     11361     11364     11348     11347     11349     11350
     11348     11347     11349     11351     11348     11347     11349     11361
     11349     11361     11364     11365     11349     11361     11364     11366
     11349     11361     11364     11367     11350     11349     11361     11362
     11350     11349     11361     11363     11350     11349     11361     11364
     11351     11349     11361     11362     11351     11349     11361     11363
     11351     11349     11361     11364     11352     11355     11356     11357
     11352     11355     11356     11358     11353     11352     11355     11356
     11354     11352     11355     11356     11355     11356     11358     11359
     11355     11356     11358     11360     11355     11356     11358     11408
     11356     11358     11408     11409     11356     11358     11408     11410
     11356     11358     11408     11411     11357     11356     11358     11359
     11357     11356     11358     11360     11357     11356     11358     11408
     11358     11408     11411     11412     11358     11408     11411     11413
     11358     11408     11411     11414     11359     11358     11408     11409
     11359     11358     11408     11410     11359     11358     11408     11411
     11360     11358     11408     11409     11360     11358     11408     11410
     11360     11358     11408     11411     11361     11364     11367     11368
     11361     11364     11367     11369     11361     11364     11367     11370
     11362     11361     11364     11365     11362     11361     11364     11366
     11362     11361     11364     11367     11363     11361     11364     11365
     11363     11361     11364     11366     11363     11361     11364     11367
     11364     11367     11370     11371     11364     11367     11370     11372
     11364     11367     11370     11373     11365     11364     11367     11368
     11365     11364     11367     11369     11365     11364     11367     11370
     11366     11364     11367     11368     11366     11364     11367     11369
     11366     11364     11367     11370     11367     11370     11373     11374
     11367     11370     11373     11375     11367     11370     11373     11376
     11368     11367     11370     11371     11368     11367     11370     11372
     11368     11367     11370     11373     11369     11367     11370     11371
     11369     11367     11370     11372     11369     11367     11370     11373
     11370     11373     11376     11377     11370     11373     11376     11378
     11370     11373     11376     11379     11371     11370     11373     11374
     11371     11370     11373     11375     11371     11370     11373     11376
     11372     11370     11373     11374     11372     11370     11373     11375
     11372     11370     11373     11376     11373     11376     11379     11380
     11373     11376     11379     11381     11374     11373     11376     11377
     11374     11373     11376     11378     11374     11373     11376     11379
     11375     11373     11376     11377     11375     11373     11376     11378
     11375     11373     11376     11379     11376     11379     11381     11382
     11376     11379     11381     11383     11377     11376     11379     11380
     11377     11376     11379     11381     11378     11376     11379     11380
     11378     11376     11379     11381     11379     11381     11383     11384
     11379     11381     11383     11385     11379     11381     11383     11386
     11380     11379     11381     11382     11380     11379     11381     11383
     11381     11383     11386     11387     11381     11383     11386     11388
     11381     11383     11386     11389     11382     11381     11383     11384
     11382     11381     11383     11385     11382     11381     11383     11386
     11383     11386     11389     11390     11383     11386     11389     11391
     11383     11386     11389     11392     11384     11383     11386     11387
     11384     11383     11386     11388     11384     11383     11386     11389
     11385     11383     11386     11387     11385     11383     11386     11388
     11385     11383     11386     11389     11386     11389     11392     11393
     11386     11389     11392     11394     11386     11389     11392     11395
     11387     11386     11389     11390     11387     11386     11389     11391
     11387     11386     11389     11392     11388     11386     11389     11390
     11388     11386     11389     11391     11388     11386     11389     11392
     11389     11392     11395     11396     11389     11392     11395     11397
     11389     11392     11395     11398     11390     11389     11392     11393
     11390     11389     11392     11394     11390     11389     11392     11395
     11391     11389     11392     11393     11391     11389     11392     11394
     11391     11389     11392     11395     11392     11395     11398     11399
     11392     11395     11398     11400     11392     11395     11398     11401
     11393     11392     11395     11396     11393     11392     11395     11397
     11393     11392     11395     11398     11394     11392     11395     11396
     11394     11392     11395     11397     11394     11392     11395     11398
     11395     11398     11401     11402     11395     11398     11401     11403
     11395     11398     11401     11404     11396     11395     11398     11399
     11396     11395     11398     11400     11396     11395     11398     11401
     11397     11395     11398     11399     11397     11395     11398     11400
     11397     11395     11398     11401     11398     11401     11404     11405
     11398     11401     11404     11406     11398     11401     11404     11407
     11399     11398     11401     11402     11399     11398     11401     11403
     11399     11398     11401     11404     11400     11398     11401     11402
     11400     11398     11401     11403     11400     11398     11401     11404
     11402     11401     11404     11405     11402     11401     11404     11406
     11402     11401     11404     11407     11403     11401     11404     11405
     11403     11401     11404     11406     11403     11401     11404     11407
     11408     11411     11414     11415     11408     11411     11414     11416
     11408     11411     11414     11417     11409     11408     11411     11412
     11409     11408     11411     11413     11409     11408     11411     11414
     11410     11408     11411     11412     11410     11408     11411     11413
     11410     11408     11411     11414     11411     11414     11417     11418
     11411     11414     11417     11419     11411     11414     11417     11420
     11412     11411     11414     11415     11412     11411     11414     11416
     11412     11411     11414     11417     11413     11411     11414     11415
     11413     11411     11414     11416     11413     11411     11414     11417
     11414     11417     11420     11421     11414     11417     11420     11422
     11414     11417     11420     11423     11415     11414     11417     11418
     11415     11414     11417     11419     11415     11414     11417     11420
     11416     11414     11417     11418     11416     11414     11417     11419
     11416     11414     11417     11420     11417     11420     11423     11424
     11417     11420     11423     11425     11417     11420     11423     11426
     11418     11417     11420     11421     11418     11417     11420     11422
     11418     11417     11420     11423     11419     11417     11420     11421
     11419     11417     11420     11422     11419     11417     11420     11423
     11420     11423     11426     11427     11420     11423     11426     11428
     11421     11420     11423     11424     11421     11420     11423     11425
     11421     11420     11423     11426     11422     11420     11423     11424
     11422     11420     11423     11425     11422     11420     11423     11426
     11423     11426     11428     11429     11423     11426     11428     11430
     11424     11423     11426     11427     11424     11423     11426     11428
     11425     11423     11426     11427     11425     11423     11426     11428
     11426     11428     11430     11431     11426     11428     11430     11432
     11426     11428     11430     11433     11427     11426     11428     11429
     11427     11426     11428     11430     11428     11430     11433     11434
     11428     11430     11433     11435     11428     11430     11433     11436
     11429     11428     11430     11431     11429     11428     11430     11432
     11429     11428     11430     11433     11430     11433     11436     11437
     11430     11433     11436     11438     11430     11433     11436     11439
     11431     11430     11433     11434     11431     11430     11433     11435
     11431     11430     11433     11436     11432     11430     11433     11434
     11432     11430     11433     11435     11432     11430     11433     11436
     11433     11436     11439     11440     11433     11436     11439     11441
     11433     11436     11439     11442     11434     11433     11436     11437
     11434     11433     11436     11438     11434     11433     11436     11439
     11435     11433     11436     11437     11435     11433     11436     11438
     11435     11433     11436     11439     11436     11439     11442     11443
     11436     11439     11442     11444     11436     11439     11442     11445
     11437     11436     11439     11440     11437     11436     11439     11441
     11437     11436     11439     11442     11438     11436     11439     11440
     11438     11436     11439     11441     11438     11436     11439     11442
     11439     11442     11445     11446     11439     11442     11445     11447
     11439     11442     11445     11448     11440     11439     11442     11443
     11440     11439     11442     11444     11440     11439     11442     11445
     11441     11439     11442     11443     11441     11439     11442     11444
     11441     11439     11442     11445     11442     11445     11448     11449
     11442     11445     11448     11450     11442     11445     11448     11451
     11443     11442     11445     11446     11443     11442     11445     11447
     11443     11442     11445     11448     11444     11442     11445     11446
     11444     11442     11445     11447     11444     11442     11445     11448
     11445     11448     11451     11452     11445     11448     11451     11453
     11445     11448     11451     11454     11446     11445     11448     11449
     11446     11445     11448     11450     11446     11445     11448     11451
     11447     11445     11448     11449     11447     11445     11448     11450
     11447     11445     11448     11451     11449     11448     11451     11452
     11449     11448     11451     11453     11449     11448     11451     11454
     11450     11448     11451     11452     11450     11448     11451     11453
     11450     11448     11451     11454     11455     11456     11471     11472
     11455     11456     11471     11473     11455     11456     11471     11477
     11456     11455     11459     11460     11456     11455     11459     11461
     11456     11455     11459     11462     11456     11455     11463     11464
     11456     11455     11463     11465     11456     11455     11463     11466
     11456     11455     11467     11468     11456     11455     11467     11469
     11456     11455     11467     11470     11456     11471     11477     11474
     11457     11456     11455     11459     11457     11456     11455     11463
     11457     11456     11455     11467     11457     11456     11471     11472
     11457     11456     11471     11473     11457     11456     11471     11477
     11458     11456     11455     11459     11458     11456     11455     11463
     11458     11456     11455     11467     11458     11456     11471     11472
     11458     11456     11471     11473     11458     11456     11471     11477
     11459     11455     11456     11471     11459     11455     11463     11464
     11459     11455     11463     11465     11459     11455     11463     11466
     11459     11455     11467     11468     11459     11455     11467     11469
     11459     11455     11467     11470     11460     11459     11455     11463
     11460     11459     11455     11467     11461     11459     11455     11463
     11461     11459     11455     11467     11462     11459     11455     11463
     11462     11459     11455     11467     11463     11455     11456     11471
     11463     11455     11467     11468     11463     11455     11467     11469
     11463     11455     11467     11470     11464     11463     11455     11467
     11465     11463     11455     11467     11466     11463     11455     11467
     11467     11455     11456     11471     11471     11477     11474     11475
     11471     11477     11474     11476     11471     11477     11474     11478
     11472     11471     11477     11474     11473     11471     11477     11474
     11474     11478     11479     11480     11474     11478     11479     11481
     11474     11478     11479     11482     11475     11474     11478     11479
     11476     11474     11478     11479     11477     11474     11478     11479
     11478     11479     11482     11483     11478     11479     11482     11484
     11478     11479     11482     11490     11479     11482     11484     11485
     11479     11482     11490     11491     11479     11482     11490     11492
     11479     11482     11490     11493     11480     11479     11482     11483
     11480     11479     11482     11484     11480     11479     11482     11490
     11481     11479     11482     11483     11481     11479     11482     11484
     11481     11479     11482     11490     11482     11484     11485     11486
     11482     11484     11485     11487     11482     11490     11493     11494
     11483     11482     11484     11485     11483     11482     11490     11491
     11483     11482     11490     11492     11483     11482     11490     11493
     11484     11482     11490     11491     11484     11482     11490     11492
     11484     11482     11490     11493     11484     11485     11487     11488
     11484     11485     11487     11489     11484     11485     11487     11499
     11485     11484     11482     11490     11485     11487     11499     11500
     11485     11487     11499     11501     11485     11487     11499     11502
     11486     11485     11487     11488     11486     11485     11487     11489
     11486     11485     11487     11499     11487     11499     11502     11503
     11487     11499     11502     11504     11487     11499     11502     11505
     11488     11487     11499     11500     11488     11487     11499     11501
     11488     11487     11499     11502     11489     11487     11499     11500
     11489     11487     11499     11501     11489     11487     11499     11502
     11490     11493     11494     11495     11490     11493     11494     11496
     11491     11490     11493     11494     11492     11490     11493     11494
     11493     11494     11496     11497     11493     11494     11496     11498
     11493     11494     11496     11546     11494     11496     11546     11547
     11494     11496     11546     11548     11494     11496     11546     11549
     11495     11494     11496     11497     11495     11494     11496     11498
     11495     11494     11496     11546     11496     11546     11549     11550
     11496     11546     11549     11551     11496     11546     11549     11552
     11497     11496     11546     11547     11497     11496     11546     11548
     11497     11496     11546     11549     11498     11496     11546     11547
     11498     11496     11546     11548     11498     11496     11546     11549
     11499     11502     11505     11506     11499     11502     11505     11507
     11499     11502     11505     11508     11500     11499     11502     11503
     11500     11499     11502     11504     11500     11499     11502     11505
     11501     11499     11502     11503     11501     11499     11502     11504
     11501     11499     11502     11505     11502     11505     11508     11509
     11502     11505     11508     11510     11502     11505     11508     11511
     11503     11502     11505     11506     11503     11502     11505     11507
     11503     11502     11505     11508     11504     11502     11505     11506
     11504     11502     11505     11507     11504     11502     11505     11508
     11505     11508     11511     11512     11505     11508     11511     11513
     11505     11508     11511     11514     11506     11505     11508     11509
     11506     11505     11508     11510     11506     11505     11508     11511
     11507     11505     11508     11509     11507     11505     11508     11510
     11507     11505     11508     11511     11508     11511     11514     11515
     11508     11511     11514     11516     11508     11511     11514     11517
     11509     11508     11511     11512     11509     11508     11511     11513
     11509     11508     11511     11514     11510     11508     11511     11512
     11510     11508     11511     11513     11510     11508     11511     11514
     11511     11514     11517     11518     11511     11514     11517     11519
     11512     11511     11514     11515     11512     11511     11514     11516
     11512     11511     11514     11517     11513     11511     11514     11515
     11513     11511     11514     11516     11513     11511     11514     11517
     11514     11517     11519     11520     11514     11517     11519     11521
     11515     11514     11517     11518     11515     11514     11517     11519
     11516     11514     11517     11518     11516     11514     11517     11519
     11517     11519     11521     11522     11517     11519     11521     11523
     11517     11519     11521     11524     11518     11517     11519     11520
     11518     11517     11519     11521     11519     11521     11524     11525
     11519     11521     11524     11526     11519     11521     11524     11527
     11520     11519     11521     11522     11520     11519     11521     11523
     11520     11519     11521     11524     11521     11524     11527     11528
     11521     11524     11527     11529     11521     11524     11527     11530
     11522     11521     11524     11525     11522     11521     11524     11526
     11522     11521     11524     11527     11523     11521     11524     11525
     11523     11521     11524     11526     11523     11521     11524     11527
     11524     11527     11530     11531     11524     11527     11530     11532
     11524     11527     11530     11533     11525     11524     11527     11528
     11525     11524     11527     11529     11525     11524     11527     11530
     11526     11524     11527     11528     11526     11524     11527     11529
     11526     11524     11527     11530     11527     11530     11533     11534
     11527     11530     11533     11535     11527     11530     11533     11536
     11528     11527     11530     11531     11528     11527     11530     11532
     11528     11527     11530     11533     11529     11527     11530     11531
     11529     11527     11530     11532     11529     11527     11530     11533
     11530     11533     11536     11537     11530     11533     11536     11538
     11530     11533     11536     11539     11531     11530     11533     11534
     11531     11530     11533     11535     11531     11530     11533     11536
     11532     11530     11533     11534     11532     11530     11533     11535
     11532     11530     11533     11536     11533     11536     11539     11540
     11533     11536     11539     11541     11533     11536     11539     11542
     11534     11533     11536     11537     11534     11533     11536     11538
     11534     11533     11536     11539     11535     11533     11536     11537
     11535     11533     11536     11538     11535     11533     11536     11539
     11536     11539     11542     11543     11536     11539     11542     11544
     11536     11539     11542     11545     11537     11536     11539     11540
     11537     11536     11539     11541     11537     11536     11539     11542
     11538     11536     11539     11540     11538     11536     11539     11541
     11538     11536     11539     11542     11540     11539     11542     11543
     11540     11539     11542     11544     11540     11539     11542     11545
     11541     11539     11542     11543     11541     11539     11542     11544
     11541     11539     11542     11545     11546     11549     11552     11553
     11546     11549     11552     11554     11546     11549     11552     11555
     11547     11546     11549     11550     11547     11546     11549     11551
     11547     11546     11549     11552     11548     11546     11549     11550
     11548     11546     11549     11551     11548     11546     11549     11552
     11549     11552     11555     11556     11549     11552     11555     11557
     11549     11552     11555     11558     11550     11549     11552     11553
     11550     11549     11552     11554     11550     11549     11552     11555
     11551     11549     11552     11553     11551     11549     11552     11554
     11551     11549     11552     11555     11552     11555     11558     11559
     11552     11555     11558     11560     11552     11555     11558     11561
     11553     11552     11555     11556     11553     11552     11555     11557
     11553     11552     11555     11558     11554     11552     11555     11556
     11554     11552     11555     11557     11554     11552     11555     11558
     11555     11558     11561     11562     11555     11558     11561     11563
     11555     11558     11561     11564     11556     11555     11558     11559
     11556     11555     11558     11560     11556     11555     11558     11561
     11557     11555     11558     11559     11557     11555     11558     11560
     11557     11555     11558     11561     11558     11561     11564     11565
     11558     11561     11564     11566     11559     11558     11561     11562
     11559     11558     11561     11563     11559     11558     11561     11564
     11560     11558     11561     11562     11560     11558     11561     11563
     11560     11558     11561     11564     11561     11564     11566     11567
     11561     11564     11566     11568     11562     11561     11564     11565
     11562     11561     11564     11566     11563     11561     11564     11565
     11563     11561     11564     11566     11564     11566     11568     11569
     11564     11566     11568     11570     11564     11566     11568     11571
     11565     11564     11566     11567     11565     11564     11566     11568
     11566     11568     11571     11572     11566     11568     11571     11573
     11566     11568     11571     11574     11567     11566     11568     11569
     11567     11566     11568     11570     11567     11566     11568     11571
     11568     11571     11574     11575     11568     11571     11574     11576
     11568     11571     11574     11577     11569     11568     11571     11572
     11569     11568     11571     11573     11569     11568     11571     11574
     11570     11568     11571     11572     11570     11568     11571     11573
     11570     11568     11571     11574     11571     11574     11577     11578
     11571     11574     11577     11579     11571     11574     11577     11580
     11572     11571     11574     11575     11572     11571     11574     11576
     11572     11571     11574     11577     11573     11571     11574     11575
     11573     11571     11574     11576     11573     11571     11574     11577
     11574     11577     11580     11581     11574     11577     11580     11582
     11574     11577     11580     11583     11575     11574     11577     11578
     11575     11574     11577     11579     11575     11574     11577     11580
     11576     11574     11577     11578     11576     11574     11577     11579
     11576     11574     11577     11580     11577     11580     11583     11584
     11577     11580     11583     11585     11577     11580     11583     11586
     11578     11577     11580     11581     11578     11577     11580     11582
     11578     11577     11580     11583     11579     11577     11580     11581
     11579     11577     11580     11582     11579     11577     11580     11583
     11580     11583     11586     11587     11580     11583     11586     11588
     11580     11583     11586     11589     11581     11580     11583     11584
     11581     11580     11583     11585     11581     11580     11583     11586
     11582     11580     11583     11584     11582     11580     11583     11585
     11582     11580     11583     11586     11583     11586     11589     11590
     11583     11586     11589     11591     11583     11586     11589     11592
     11584     11583     11586     11587     11584     11583     11586     11588
     11584     11583     11586     11589     11585     11583     11586     11587
     11585     11583     11586     11588     11585     11583     11586     11589
     11587     11586     11589     11590     11587     11586     11589     11591
     11587     11586     11589     11592     11588     11586     11589     11590
     11588     11586     11589     11591     11588     11586     11589     11592
     11593     11594     11609     11610     11593     11594     11609     11611
     11593     11594     11609     11615     11594     11593     11597     11598
     11594     11593     11597     11599     11594     11593     11597     11600
     11594     11593     11601     11602     11594     11593     11601     11603
     11594     11593     11601     11604     11594     11593     11605     11606
     11594     11593     11605     11607     11594     11593     11605     11608
     11594     11609     11615     11612     11595     11594     11593     11597
     11595     11594     11593     11601     11595     11594     11593     11605
     11595     11594     11609     11610     11595     11594     11609     11611
     11595     11594     11609     11615     11596     11594     11593     11597
     11596     11594     11593     11601     11596     11594     11593     11605
     11596     11594     11609     11610     11596     11594     11609     11611
     11596     11594     11609     11615     11597     11593     11594     11609
     11597     11593     11601     11602     11597     11593     11601     11603
     11597     11593     11601     11604     11597     11593     11605     11606
     11597     11593     11605     11607     11597     11593     11605     11608
     11598     11597     11593     11601     11598     11597     11593     11605
     11599     11597     11593     11601     11599     11597     11593     11605
     11600     11597     11593     11601     11600     11597     11593     11605
     11601     11593     11594     11609     11601     11593     11605     11606
     11601     11593     11605     11607     11601     11593     11605     11608
     11602     11601     11593     11605     11603     11601     11593     11605
     11604     11601     11593     11605     11605     11593     11594     11609
     11609     11615     11612     11613     11609     11615     11612     11614
     11609     11615     11612     11616     11610     11609     11615     11612
     11611     11609     11615     11612     11612     11616     11617     11618
     11612     11616     11617     11619     11612     11616     11617     11620
     11613     11612     11616     11617     11614     11612     11616     11617
     11615     11612     11616     11617     11616     11617     11620     11621
     11616     11617     11620     11622     11616     11617     11620     11628
     11617     11620     11622     11623     11617     11620     11628     11629
     11617     11620     11628     11630     11617     11620     11628     11631
     11618     11617     11620     11621     11618     11617     11620     11622
     11618     11617     11620     11628     11619     11617     11620     11621
     11619     11617     11620     11622     11619     11617     11620     11628
     11620     11622     11623     11624     11620     11622     11623     11625
     11620     11628     11631     11632     11621     11620     11622     11623
     11621     11620     11628     11629     11621     11620     11628     11630
     11621     11620     11628     11631     11622     11620     11628     11629
     11622     11620     11628     11630     11622     11620     11628     11631
     11622     11623     11625     11626     11622     11623     11625     11627
     11622     11623     11625     11637     11623     11622     11620     11628
     11623     11625     11637     11638     11623     11625     11637     11639
     11623     11625     11637     11640     11624     11623     11625     11626
     11624     11623     11625     11627     11624     11623     11625     11637
     11625     11637     11640     11641     11625     11637     11640     11642
     11625     11637     11640     11643     11626     11625     11637     11638
     11626     11625     11637     11639     11626     11625     11637     11640
     11627     11625     11637     11638     11627     11625     11637     11639
     11627     11625     11637     11640     11628     11631     11632     11633
     11628     11631     11632     11634     11629     11628     11631     11632
     11630     11628     11631     11632     11631     11632     11634     11635
     11631     11632     11634     11636     11631     11632     11634     11684
     11632     11634     11684     11685     11632     11634     11684     11686
     11632     11634     11684     11687     11633     11632     11634     11635
     11633     11632     11634     11636     11633     11632     11634     11684
     11634     11684     11687     11688     11634     11684     11687     11689
     11634     11684     11687     11690     11635     11634     11684     11685
     11635     11634     11684     11686     11635     11634     11684     11687
     11636     11634     11684     11685     11636     11634     11684     11686
     11636     11634     11684     11687     11637     11640     11643     11644
     11637     11640     11643     11645     11637     11640     11643     11646
     11638     11637     11640     11641     11638     11637     11640     11642
     11638     11637     11640     11643     11639     11637     11640     11641
     11639     11637     11640     11642     11639     11637     11640     11643
     11640     11643     11646     11647     11640     11643     11646     11648
     11640     11643     11646     11649     11641     11640     11643     11644
     11641     11640     11643     11645     11641     11640     11643     11646
     11642     11640     11643     11644     11642     11640     11643     11645
     11642     11640     11643     11646     11643     11646     11649     11650
     11643     11646     11649     11651     11643     11646     11649     11652
     11644     11643     11646     11647     11644     11643     11646     11648
     11644     11643     11646     11649     11645     11643     11646     11647
     11645     11643     11646     11648     11645     11643     11646     11649
     11646     11649     11652     11653     11646     11649     11652     11654
     11646     11649     11652     11655     11647     11646     11649     11650
     11647     11646     11649     11651     11647     11646     11649     11652
     11648     11646     11649     11650     11648     11646     11649     11651
     11648     11646     11649     11652     11649     11652     11655     11656
     11649     11652     11655     11657     11650     11649     11652     11653
     11650     11649     11652     11654     11650     11649     11652     11655
     11651     11649     11652     11653     11651     11649     11652     11654
     11651     11649     11652     11655     11652     11655     11657     11658
     11652     11655     11657     11659     11653     11652     11655     11656
     11653     11652     11655     11657     11654     11652     11655     11656
     11654     11652     11655     11657     11655     11657     11659     11660
     11655     11657     11659     11661     11655     11657     11659     11662
     11656     11655     11657     11658     11656     11655     11657     11659
     11657     11659     11662     11663     11657     11659     11662     11664
     11657     11659     11662     11665     11658     11657     11659     11660
     11658     11657     11659     11661     11658     11657     11659     11662
     11659     11662     11665     11666     11659     11662     11665     11667
     11659     11662     11665     11668     11660     11659     11662     11663
     11660     11659     11662     11664     11660     11659     11662     11665
     11661     11659     11662     11663     11661     11659     11662     11664
     11661     11659     11662     11665     11662     11665     11668     11669
     11662     11665     11668     11670     11662     11665     11668     11671
     11663     11662     11665     11666     11663     11662     11665     11667
     11663     11662     11665     11668     11664     11662     11665     11666
     11664     11662     11665     11667     11664     11662     11665     11668
     11665     11668     11671     11672     11665     11668     11671     11673
     11665     11668     11671     11674     11666     11665     11668     11669
     11666     11665     11668     11670     11666     11665     11668     11671
     11667     11665     11668     11669     11667     11665     11668     11670
     11667     11665     11668     11671     11668     11671     11674     11675
     11668     11671     11674     11676     11668     11671     11674     11677
     11669     11668     11671     11672     11669     11668     11671     11673
     11669     11668     11671     11674     11670     11668     11671     11672
     11670     11668     11671     11673     11670     11668     11671     11674
     11671     11674     11677     11678     11671     11674     11677     11679
     11671     11674     11677     11680     11672     11671     11674     11675
     11672     11671     11674     11676     11672     11671     11674     11677
     11673     11671     11674     11675     11673     11671     11674     11676
     11673     11671     11674     11677     11674     11677     11680     11681
     11674     11677     11680     11682     11674     11677     11680     11683
     11675     11674     11677     11678     11675     11674     11677     11679
     11675     11674     11677     11680     11676     11674     11677     11678
     11676     11674     11677     11679     11676     11674     11677     11680
     11678     11677     11680     11681     11678     11677     11680     11682
     11678     11677     11680     11683     11679     11677     11680     11681
     11679     11677     11680     11682     11679     11677     11680     11683
     11684     11687     11690     11691     11684     11687     11690     11692
     11684     11687     11690     11693     11685     11684     11687     11688
     11685     11684     11687     11689     11685     11684     11687     11690
     11686     11684     11687     11688     11686     11684     11687     11689
     11686     11684     11687     11690     11687     11690     11693     11694
     11687     11690     11693     11695     11687     11690     11693     11696
     11688     11687     11690     11691     11688     11687     11690     11692
     11688     11687     11690     11693     11689     11687     11690     11691
     11689     11687     11690     11692     11689     11687     11690     11693
     11690     11693     11696     11697     11690     11693     11696     11698
     11690     11693     11696     11699     11691     11690     11693     11694
     11691     11690     11693     11695     11691     11690     11693     11696
     11692     11690     11693     11694     11692     11690     11693     11695
     11692     11690     11693     11696     11693     11696     11699     11700
     11693     11696     11699     11701     11693     11696     11699     11702
     11694     11693     11696     11697     11694     11693     11696     11698
     11694     11693     11696     11699     11695     11693     11696     11697
     11695     11693     11696     11698     11695     11693     11696     11699
     11696     11699     11702     11703     11696     11699     11702     11704
     11697     11696     11699     11700     11697     11696     11699     11701
     11697     11696     11699     11702     11698     11696     11699     11700
     11698     11696     11699     11701     11698     11696     11699     11702
     11699     11702     11704     11705     11699     11702     11704     11706
     11700     11699     11702     11703     11700     11699     11702     11704
     11701     11699     11702     11703     11701     11699     11702     11704
     11702     11704     11706     11707     11702     11704     11706     11708
     11702     11704     11706     11709     11703     11702     11704     11705
     11703     11702     11704     11706     11704     11706     11709     11710
     11704     11706     11709     11711     11704     11706     11709     11712
     11705     11704     11706     11707     11705     11704     11706     11708
     11705     11704     11706     11709     11706     11709     11712     11713
     11706     11709     11712     11714     11706     11709     11712     11715
     11707     11706     11709     11710     11707     11706     11709     11711
     11707     11706     11709     11712     11708     11706     11709     11710
     11708     11706     11709     11711     11708     11706     11709     11712
     11709     11712     11715     11716     11709     11712     11715     11717
     11709     11712     11715     11718     11710     11709     11712     11713
     11710     11709     11712     11714     11710     11709     11712     11715
     11711     11709     11712     11713     11711     11709     11712     11714
     11711     11709     11712     11715     11712     11715     11718     11719
     11712     11715     11718     11720     11712     11715     11718     11721
     11713     11712     11715     11716     11713     11712     11715     11717
     11713     11712     11715     11718     11714     11712     11715     11716
     11714     11712     11715     11717     11714     11712     11715     11718
     11715     11718     11721     11722     11715     11718     11721     11723
     11715     11718     11721     11724     11716     11715     11718     11719
     11716     11715     11718     11720     11716     11715     11718     11721
     11717     11715     11718     11719     11717     11715     11718     11720
     11717     11715     11718     11721     11718     11721     11724     11725
     11718     11721     11724     11726     11718     11721     11724     11727
     11719     11718     11721     11722     11719     11718     11721     11723
     11719     11718     11721     11724     11720     11718     11721     11722
     11720     11718     11721     11723     11720     11718     11721     11724
     11721     11724     11727     11728     11721     11724     11727     11729
     11721     11724     11727     11730     11722     11721     11724     11725
     11722     11721     11724     11726     11722     11721     11724     11727
     11723     11721     11724     11725     11723     11721     11724     11726
     11723     11721     11724     11727     11725     11724     11727     11728
     11725     11724     11727     11729     11725     11724     11727     11730
     11726     11724     11727     11728     11726     11724     11727     11729
     11726     11724     11727     11730     11731     11732     11747     11748
     11731     11732     11747     11749     11731     11732     11747     11753
     11732     11731     11735     11736     11732     11731     11735     11737
     11732     11731     11735     11738     11732     11731     11739     11740
     11732     11731     11739     11741     11732     11731     11739     11742
     11732     11731     11743     11744     11732     11731     11743     11745
     11732     11731     11743     11746     11732     11747     11753     11750
     11733     11732     11731     11735     11733     11732     11731     11739
     11733     11732     11731     11743     11733     11732     11747     11748
     11733     11732     11747     11749     11733     11732     11747     11753
     11734     11732     11731     11735     11734     11732     11731     11739
     11734     11732     11731     11743     11734     11732     11747     11748
     11734     11732     11747     11749     11734     11732     11747     11753
     11735     11731     11732     11747     11735     11731     11739     11740
     11735     11731     11739     11741     11735     11731     11739     11742
     11735     11731     11743     11744     11735     11731     11743     11745
     11735     11731     11743     11746     11736     11735     11731     11739
     11736     11735     11731     11743     11737     11735     11731     11739
     11737     11735     11731     11743     11738     11735     11731     11739
     11738     11735     11731     11743     11739     11731     11732     11747
     11739     11731     11743     11744     11739     11731     11743     11745
     11739     11731     11743     11746     11740     11739     11731     11743
     11741     11739     11731     11743     11742     11739     11731     11743
     11743     11731     11732     11747     11747     11753     11750     11751
     11747     11753     11750     11752     11747     11753     11750     11754
     11748     11747     11753     11750     11749     11747     11753     11750
     11750     11754     11755     11756     11750     11754     11755     11757
     11750     11754     11755     11758     11751     11750     11754     11755
     11752     11750     11754     11755     11753     11750     11754     11755
     11754     11755     11758     11759     11754     11755     11758     11760
     11754     11755     11758     11766     11755     11758     11760     11761
     11755     11758     11766     11767     11755     11758     11766     11768
     11755     11758     11766     11769     11756     11755     11758     11759
     11756     11755     11758     11760     11756     11755     11758     11766
     11757     11755     11758     11759     11757     11755     11758     11760
     11757     11755     11758     11766     11758     11760     11761     11762
     11758     11760     11761     11763     11758     11766     11769     11770
     11759     11758     11760     11761     11759     11758     11766     11767
     11759     11758     11766     11768     11759     11758     11766     11769
     11760     11758     11766     11767     11760     11758     11766     11768
     11760     11758     11766     11769     11760     11761     11763     11764
     11760     11761     11763     11765     11760     11761     11763     11775
     11761     11760     11758     11766     11761     11763     11775     11776
     11761     11763     11775     11777     11761     11763     11775     11778
     11762     11761     11763     11764     11762     11761     11763     11765
     11762     11761     11763     11775     11763     11775     11778     11779
     11763     11775     11778     11780     11763     11775     11778     11781
     11764     11763     11775     11776     11764     11763     11775     11777
     11764     11763     11775     11778     11765     11763     11775     11776
     11765     11763     11775     11777     11765     11763     11775     11778
     11766     11769     11770     11771     11766     11769     11770     11772
     11767     11766     11769     11770     11768     11766     11769     11770
     11769     11770     11772     11773     11769     11770     11772     11774
     11769     11770     11772     11822     11770     11772     11822     11823
     11770     11772     11822     11824     11770     11772     11822     11825
     11771     11770     11772     11773     11771     11770     11772     11774
     11771     11770     11772     11822     11772     11822     11825     11826
     11772     11822     11825     11827     11772     11822     11825     11828
     11773     11772     11822     11823     11773     11772     11822     11824
     11773     11772     11822     11825     11774     11772     11822     11823
     11774     11772     11822     11824     11774     11772     11822     11825
     11775     11778     11781     11782     11775     11778     11781     11783
     11775     11778     11781     11784     11776     11775     11778     11779
     11776     11775     11778     11780     11776     11775     11778     11781
     11777     11775     11778     11779     11777     11775     11778     11780
     11777     11775     11778     11781     11778     11781     11784     11785
     11778     11781     11784     11786     11778     11781     11784     11787
     11779     11778     11781     11782     11779     11778     11781     11783
     11779     11778     11781     11784     11780     11778     11781     11782
     11780     11778     11781     11783     11780     11778     11781     11784
     11781     11784     11787     11788     11781     11784     11787     11789
     11781     11784     11787     11790     11782     11781     11784     11785
     11782     11781     11784     11786     11782     11781     11784     11787
     11783     11781     11784     11785     11783     11781     11784     11786
     11783     11781     11784     11787     11784     11787     11790     11791
     11784     11787     11790     11792     11784     11787     11790     11793
     11785     11784     11787     11788     11785     11784     11787     11789
     11785     11784     11787     11790     11786     11784     11787     11788
     11786     11784     11787     11789     11786     11784     11787     11790
     11787     11790     11793     11794     11787     11790     11793     11795
     11788     11787     11790     11791     11788     11787     11790     11792
     11788     11787     11790     11793     11789     11787     11790     11791
     11789     11787     11790     11792     11789     11787     11790     11793
     11790     11793     11795     11796     11790     11793     11795     11797
     11791     11790     11793     11794     11791     11790     11793     11795
     11792     11790     11793     11794     11792     11790     11793     11795
     11793     11795     11797     11798     11793     11795     11797     11799
     11793     11795     11797     11800     11794     11793     11795     11796
     11794     11793     11795     11797     11795     11797     11800     11801
     11795     11797     11800     11802     11795     11797     11800     11803
     11796     11795     11797     11798     11796     11795     11797     11799
     11796     11795     11797     11800     11797     11800     11803     11804
     11797     11800     11803     11805     11797     11800     11803     11806
     11798     11797     11800     11801     11798     11797     11800     11802
     11798     11797     11800     11803     11799     11797     11800     11801
     11799     11797     11800     11802     11799     11797     11800     11803
     11800     11803     11806     11807     11800     11803     11806     11808
     11800     11803     11806     11809     11801     11800     11803     11804
     11801     11800     11803     11805     11801     11800     11803     11806
     11802     11800     11803     11804     11802     11800     11803     11805
     11802     11800     11803     11806     11803     11806     11809     11810
     11803     11806     11809     11811     11803     11806     11809     11812
     11804     11803     11806     11807     11804     11803     11806     11808
     11804     11803     11806     11809     11805     11803     11806     11807
     11805     11803     11806     11808     11805     11803     11806     11809
     11806     11809     11812     11813     11806     11809     11812     11814
     11806     11809     11812     11815     11807     11806     11809     11810
     11807     11806     11809     11811     11807     11806     11809     11812
     11808     11806     11809     11810     11808     11806     11809     11811
     11808     11806     11809     11812     11809     11812     11815     11816
     11809     11812     11815     11817     11809     11812     11815     11818
     11810     11809     11812     11813     11810     11809     11812     11814
     11810     11809     11812     11815     11811     11809     11812     11813
     11811     11809     11812     11814     11811     11809     11812     11815
     11812     11815     11818     11819     11812     11815     11818     11820
     11812     11815     11818     11821     11813     11812     11815     11816
     11813     11812     11815     11817     11813     11812     11815     11818
     11814     11812     11815     11816     11814     11812     11815     11817
     11814     11812     11815     11818     11816     11815     11818     11819
     11816     11815     11818     11820     11816     11815     11818     11821
     11817     11815     11818     11819     11817     11815     11818     11820
     11817     11815     11818     11821     11822     11825     11828     11829
     11822     11825     11828     11830     11822     11825     11828     11831
     11823     11822     11825     11826     11823     11822     11825     11827
     11823     11822     11825     11828     11824     11822     11825     11826
     11824     11822     11825     11827     11824     11822     11825     11828
     11825     11828     11831     11832     11825     11828     11831     11833
     11825     11828     11831     11834     11826     11825     11828     11829
     11826     11825     11828     11830     11826     11825     11828     11831
     11827     11825     11828     11829     11827     11825     11828     11830
     11827     11825     11828     11831     11828     11831     11834     11835
     11828     11831     11834     11836     11828     11831     11834     11837
     11829     11828     11831     11832     11829     11828     11831     11833
     11829     11828     11831     11834     11830     11828     11831     11832
     11830     11828     11831     11833     11830     11828     11831     11834
     11831     11834     11837     11838     11831     11834     11837     11839
     11831     11834     11837     11840     11832     11831     11834     11835
     11832     11831     11834     11836     11832     11831     11834     11837
     11833     11831     11834     11835     11833     11831     11834     11836
     11833     11831     11834     11837     11834     11837     11840     11841
     11834     11837     11840     11842     11835     11834     11837     11838
     11835     11834     11837     11839     11835     11834     11837     11840
     11836     11834     11837     11838     11836     11834     11837     11839
     11836     11834     11837     11840     11837     11840     11842     11843
     11837     11840     11842     11844     11838     11837     11840     11841
     11838     11837     11840     11842     11839     11837     11840     11841
     11839     11837     11840     11842     11840     11842     11844     11845
     11840     11842     11844     11846     11840     11842     11844     11847
     11841     11840     11842     11843     11841     11840     11842     11844
     11842     11844     11847     11848     11842     11844     11847     11849
     11842     11844     11847     11850     11843     11842     11844     11845
     11843     11842     11844     11846     11843     11842     11844     11847
     11844     11847     11850     11851     11844     11847     11850     11852
     11844     11847     11850     11853     11845     11844     11847     11848
     11845     11844     11847     11849     11845     11844     11847     11850
     11846     11844     11847     11848     11846     11844     11847     11849
     11846     11844     11847     11850     11847     11850     11853     11854
     11847     11850     11853     11855     11847     11850     11853     11856
     11848     11847     11850     11851     11848     11847     11850     11852
     11848     11847     11850     11853     11849     11847     11850     11851
     11849     11847     11850     11852     11849     11847     11850     11853
     11850     11853     11856     11857     11850     11853     11856     11858
     11850     11853     11856     11859     11851     11850     11853     11854
     11851     11850     11853     11855     11851     11850     11853     11856
     11852     11850     11853     11854     11852     11850     11853     11855
     11852     11850     11853     11856     11853     11856     11859     11860
     11853     11856     11859     11861     11853     11856     11859     11862
     11854     11853     11856     11857     11854     11853     11856     11858
     11854     11853     11856     11859     11855     11853     11856     11857
     11855     11853     11856     11858     11855     11853     11856     11859
     11856     11859     11862     11863     11856     11859     11862     11864
     11856     11859     11862     11865     11857     11856     11859     11860
     11857     11856     11859     11861     11857     11856     11859     11862
     11858     11856     11859     11860     11858     11856     11859     11861
     11858     11856     11859     11862     11859     11862     11865     11866
     11859     11862     11865     11867     11859     11862     11865     11868
     11860     11859     11862     11863     11860     11859     11862     11864
     11860     11859     11862     11865     11861     11859     11862     11863
     11861     11859     11862     11864     11861     11859     11862     11865
     11863     11862     11865     11866     11863     11862     11865     11867
     11863     11862     11865     11868     11864     11862     11865     11866
     11864     11862     11865     11867     11864     11862     11865     11868
     11869     11870     11885     11886     11869     11870     11885     11887
     11869     11870     11885     11891     11870     11869     11873     11874
     11870     11869     11873     11875     11870     11869     11873     11876
     11870     11869     11877     11878     11870     11869     11877     11879
     11870     11869     11877     11880     11870     11869     11881     11882
     11870     11869     11881     11883     11870     11869     11881     11884
     11870     11885     11891     11888     11871     11870     11869     11873
     11871     11870     11869     11877     11871     11870     11869     11881
     11871     11870     11885     11886     11871     11870     11885     11887
     11871     11870     11885     11891     11872     11870     11869     11873
     11872     11870     11869     11877     11872     11870     11869     11881
     11872     11870     11885     11886     11872     11870     11885     11887
     11872     11870     11885     11891     11873     11869     11870     11885
     11873     11869     11877     11878     11873     11869     11877     11879
     11873     11869     11877     11880     11873     11869     11881     11882
     11873     11869     11881     11883     11873     11869     11881     11884
     11874     11873     11869     11877     11874     11873     11869     11881
     11875     11873     11869     11877     11875     11873     11869     11881
     11876     11873     11869     11877     11876     11873     11869     11881
     11877     11869     11870     11885     11877     11869     11881     11882
     11877     11869     11881     11883     11877     11869     11881     11884
     11878     11877     11869     11881     11879     11877     11869     11881
     11880     11877     11869     11881     11881     11869     11870     11885
     11885     11891     11888     11889     11885     11891     11888     11890
     11885     11891     11888     11892     11886     11885     11891     11888
     11887     11885     11891     11888     11888     11892     11893     11894
     11888     11892     11893     11895     11888     11892     11893     11896
     11889     11888     11892     11893     11890     11888     11892     11893
     11891     11888     11892     11893     11892     11893     11896     11897
     11892     11893     11896     11898     11892     11893     11896     11904
     11893     11896     11898     11899     11893     11896     11904     11905
     11893     11896     11904     11906     11893     11896     11904     11907
     11894     11893     11896     11897     11894     11893     11896     11898
     11894     11893     11896     11904     11895     11893     11896     11897
     11895     11893     11896     11898     11895     11893     11896     11904
     11896     11898     11899     11900     11896     11898     11899     11901
     11896     11904     11907     11908     11897     11896     11898     11899
     11897     11896     11904     11905     11897     11896     11904     11906
     11897     11896     11904     11907     11898     11896     11904     11905
     11898     11896     11904     11906     11898     11896     11904     11907
     11898     11899     11901     11902     11898     11899     11901     11903
     11898     11899     11901     11913     11899     11898     11896     11904
     11899     11901     11913     11914     11899     11901     11913     11915
     11899     11901     11913     11916     11900     11899     11901     11902
     11900     11899     11901     11903     11900     11899     11901     11913
     11901     11913     11916     11917     11901     11913     11916     11918
     11901     11913     11916     11919     11902     11901     11913     11914
     11902     11901     11913     11915     11902     11901     11913     11916
     11903     11901     11913     11914     11903     11901     11913     11915
     11903     11901     11913     11916     11904     11907     11908     11909
     11904     11907     11908     11910     11905     11904     11907     11908
     11906     11904     11907     11908     11907     11908     11910     11911
     11907     11908     11910     11912     11907     11908     11910     11960
     11908     11910     11960     11961     11908     11910     11960     11962
     11908     11910     11960     11963     11909     11908     11910     11911
     11909     11908     11910     11912     11909     11908     11910     11960
     11910     11960     11963     11964     11910     11960     11963     11965
     11910     11960     11963     11966     11911     11910     11960     11961
     11911     11910     11960     11962     11911     11910     11960     11963
     11912     11910     11960     11961     11912     11910     11960     11962
     11912     11910     11960     11963     11913     11916     11919     11920
     11913     11916     11919     11921     11913     11916     11919     11922
     11914     11913     11916     11917     11914     11913     11916     11918
     11914     11913     11916     11919     11915     11913     11916     11917
     11915     11913     11916     11918     11915     11913     11916     11919
     11916     11919     11922     11923     11916     11919     11922     11924
     11916     11919     11922     11925     11917     11916     11919     11920
     11917     11916     11919     11921     11917     11916     11919     11922
     11918     11916     11919     11920     11918     11916     11919     11921
     11918     11916     11919     11922     11919     11922     11925     11926
     11919     11922     11925     11927     11919     11922     11925     11928
     11920     11919     11922     11923     11920     11919     11922     11924
     11920     11919     11922     11925     11921     11919     11922     11923
     11921     11919     11922     11924     11921     11919     11922     11925
     11922     11925     11928     11929     11922     11925     11928     11930
     11922     11925     11928     11931     11923     11922     11925     11926
     11923     11922     11925     11927     11923     11922     11925     11928
     11924     11922     11925     11926     11924     11922     11925     11927
     11924     11922     11925     11928     11925     11928     11931     11932
     11925     11928     11931     11933     11926     11925     11928     11929
     11926     11925     11928     11930     11926     11925     11928     11931
     11927     11925     11928     11929     11927     11925     11928     11930
     11927     11925     11928     11931     11928     11931     11933     11934
     11928     11931     11933     11935     11929     11928     11931     11932
     11929     11928     11931     11933     11930     11928     11931     11932
     11930     11928     11931     11933     11931     11933     11935     11936
     11931     11933     11935     11937     11931     11933     11935     11938
     11932     11931     11933     11934     11932     11931     11933     11935
     11933     11935     11938     11939     11933     11935     11938     11940
     11933     11935     11938     11941     11934     11933     11935     11936
     11934     11933     11935     11937     11934     11933     11935     11938
     11935     11938     11941     11942     11935     11938     11941     11943
     11935     11938     11941     11944     11936     11935     11938     11939
     11936     11935     11938     11940     11936     11935     11938     11941
     11937     11935     11938     11939     11937     11935     11938     11940
     11937     11935     11938     11941     11938     11941     11944     11945
     11938     11941     11944     11946     11938     11941     11944     11947
     11939     11938     11941     11942     11939     11938     11941     11943
     11939     11938     11941     11944     11940     11938     11941     11942
     11940     11938     11941     11943     11940     11938     11941     11944
     11941     11944     11947     11948     11941     11944     11947     11949
     11941     11944     11947     11950     11942     11941     11944     11945
     11942     11941     11944     11946     11942     11941     11944     11947
     11943     11941     11944     11945     11943     11941     11944     11946
     11943     11941     11944     11947     11944     11947     11950     11951
     11944     11947     11950     11952     11944     11947     11950     11953
     11945     11944     11947     11948     11945     11944     11947     11949
     11945     11944     11947     11950     11946     11944     11947     11948
     11946     11944     11947     11949     11946     11944     11947     11950
     11947     11950     11953     11954     11947     11950     11953     11955
     11947     11950     11953     11956     11948     11947     11950     11951
     11948     11947     11950     11952     11948     11947     11950     11953
     11949     11947     11950     11951     11949     11947     11950     11952
     11949     11947     11950     11953     11950     11953     11956     11957
     11950     11953     11956     11958     11950     11953     11956     11959
     11951     11950     11953     11954     11951     11950     11953     11955
     11951     11950     11953     11956     11952     11950     11953     11954
     11952     11950     11953     11955     11952     11950     11953     11956
     11954     11953     11956     11957     11954     11953     11956     11958
     11954     11953     11956     11959     11955     11953     11956     11957
     11955     11953     11956     11958     11955     11953     11956     11959
     11960     11963     11966     11967     11960     11963     11966     11968
     11960     11963     11966     11969     11961     11960     11963     11964
     11961     11960     11963     11965     11961     11960     11963     11966
     11962     11960     11963     11964     11962     11960     11963     11965
     11962     11960     11963     11966     11963     11966     11969     11970
     11963     11966     11969     11971     11963     11966     11969     11972
     11964     11963     11966     11967     11964     11963     11966     11968
     11964     11963     11966     11969     11965     11963     11966     11967
     11965     11963     11966     11968     11965     11963     11966     11969
     11966     11969     11972     11973     11966     11969     11972     11974
     11966     11969     11972     11975     11967     11966     11969     11970
     11967     11966     11969     11971     11967     11966     11969     11972
     11968     11966     11969     11970     11968     11966     11969     11971
     11968     11966     11969     11972     11969     11972     11975     11976
     11969     11972     11975     11977     11969     11972     11975     11978
     11970     11969     11972     11973     11970     11969     11972     11974
     11970     11969     11972     11975     11971     11969     11972     11973
     11971     11969     11972     11974     11971     11969     11972     11975
     11972     11975     11978     11979     11972     11975     11978     11980
     11973     11972     11975     11976     11973     11972     11975     11977
     11973     11972     11975     11978     11974     11972     11975     11976
     11974     11972     11975     11977     11974     11972     11975     11978
     11975     11978     11980     11981     11975     11978     11980     11982
     11976     11975     11978     11979     11976     11975     11978     11980
     11977     11975     11978     11979     11977     11975     11978     11980
     11978     11980     11982     11983     11978     11980     11982     11984
     11978     11980     11982     11985     11979     11978     11980     11981
     11979     11978     11980     11982     11980     11982     11985     11986
     11980     11982     11985     11987     11980     11982     11985     11988
     11981     11980     11982     11983     11981     11980     11982     11984
     11981     11980     11982     11985     11982     11985     11988     11989
     11982     11985     11988     11990     11982     11985     11988     11991
     11983     11982     11985     11986     11983     11982     11985     11987
     11983     11982     11985     11988     11984     11982     11985     11986
     11984     11982     11985     11987     11984     11982     11985     11988
     11985     11988     11991     11992     11985     11988     11991     11993
     11985     11988     11991     11994     11986     11985     11988     11989
     11986     11985     11988     11990     11986     11985     11988     11991
     11987     11985     11988     11989     11987     11985     11988     11990
     11987     11985     11988     11991     11988     11991     11994     11995
     11988     11991     11994     11996     11988     11991     11994     11997
     11989     11988     11991     11992     11989     11988     11991     11993
     11989     11988     11991     11994     11990     11988     11991     11992
     11990     11988     11991     11993     11990     11988     11991     11994
     11991     11994     11997     11998     11991     11994     11997     11999
     11991     11994     11997     12000     11992     11991     11994     11995
     11992     11991     11994     11996     11992     11991     11994     11997
     11993     11991     11994     11995     11993     11991     11994     11996
     11993     11991     11994     11997     11994     11997     12000     12001
     11994     11997     12000     12002     11994     11997     12000     12003
     11995     11994     11997     11998     11995     11994     11997     11999
     11995     11994     11997     12000     11996     11994     11997     11998
     11996     11994     11997     11999     11996     11994     11997     12000
     11997     12000     12003     12004     11997     12000     12003     12005
     11997     12000     12003     12006     11998     11997     12000     12001
     11998     11997     12000     12002     11998     11997     12000     12003
     11999     11997     12000     12001     11999     11997     12000     12002
     11999     11997     12000     12003     12001     12000     12003     12004
     12001     12000     12003     12005     12001     12000     12003     12006
     12002     12000     12003     12004     12002     12000     12003     12005
     12002     12000     12003     12006     12007     12008     12023     12024
     12007     12008     12023     12025     12007     12008     12023     12029
     12008     12007     12011     12012     12008     12007     12011     12013
     12008     12007     12011     12014     12008     12007     12015     12016
     12008     12007     12015     12017     12008     12007     12015     12018
     12008     12007     12019     12020     12008     12007     12019     12021
     12008     12007     12019     12022     12008     12023     12029     12026
     12009     12008     12007     12011     12009     12008     12007     12015
     12009     12008     12007     12019     12009     12008     12023     12024
     12009     12008     12023     12025     12009     12008     12023     12029
     12010     12008     12007     12011     12010     12008     12007     12015
     12010     12008     12007     12019     12010     12008     12023     12024
     12010     12008     12023     12025     12010     12008     12023     12029
     12011     12007     12008     12023     12011     12007     12015     12016
     12011     12007     12015     12017     12011     12007     12015     12018
     12011     12007     12019     12020     12011     12007     12019     12021
     12011     12007     12019     12022     12012     12011     12007     12015
     12012     12011     12007     12019     12013     12011     12007     12015
     12013     12011     12007     12019     12014     12011     12007     12015
     12014     12011     12007     12019     12015     12007     12008     12023
     12015     12007     12019     12020     12015     12007     12019     12021
     12015     12007     12019     12022     12016     12015     12007     12019
     12017     12015     12007     12019     12018     12015     12007     12019
     12019     12007     12008     12023     12023     12029     12026     12027
     12023     12029     12026     12028     12023     12029     12026     12030
     12024     12023     12029     12026     12025     12023     12029     12026
     12026     12030     12031     12032     12026     12030     12031     12033
     12026     12030     12031     12034     12027     12026     12030     12031
     12028     12026     12030     12031     12029     12026     12030     12031
     12030     12031     12034     12035     12030     12031     12034     12036
     12030     12031     12034     12042     12031     12034     12036     12037
     12031     12034     12042     12043     12031     12034     12042     12044
     12031     12034     12042     12045     12032     12031     12034     12035
     12032     12031     12034     12036     12032     12031     12034     12042
     12033     12031     12034     12035     12033     12031     12034     12036
     12033     12031     12034     12042     12034     12036     12037     12038
     12034     12036     12037     12039     12034     12042     12045     12046
     12035     12034     12036     12037     12035     12034     12042     12043
     12035     12034     12042     12044     12035     12034     12042     12045
     12036     12034     12042     12043     12036     12034     12042     12044
     12036     12034     12042     12045     12036     12037     12039     12040
     12036     12037     12039     12041     12036     12037     12039     12051
     12037     12036     12034     12042     12037     12039     12051     12052
     12037     12039     12051     12053     12037     12039     12051     12054
     12038     12037     12039     12040     12038     12037     12039     12041
     12038     12037     12039     12051     12039     12051     12054     12055
     12039     12051     12054     12056     12039     12051     12054     12057
     12040     12039     12051     12052     12040     12039     12051     12053
     12040     12039     12051     12054     12041     12039     12051     12052
     12041     12039     12051     12053     12041     12039     12051     12054
     12042     12045     12046     12047     12042     12045     12046     12048
     12043     12042     12045     12046     12044     12042     12045     12046
     12045     12046     12048     12049     12045     12046     12048     12050
     12045     12046     12048     12098     12046     12048     12098     12099
     12046     12048     12098     12100     12046     12048     12098     12101
     12047     12046     12048     12049     12047     12046     12048     12050
     12047     12046     12048     12098     12048     12098     12101     12102
     12048     12098     12101     12103     12048     12098     12101     12104
     12049     12048     12098     12099     12049     12048     12098     12100
     12049     12048     12098     12101     12050     12048     12098     12099
     12050     12048     12098     12100     12050     12048     12098     12101
     12051     12054     12057     12058     12051     12054     12057     12059
     12051     12054     12057     12060     12052     12051     12054     12055
     12052     12051     12054     12056     12052     12051     12054     12057
     12053     12051     12054     12055     12053     12051     12054     12056
     12053     12051     12054     12057     12054     12057     12060     12061
     12054     12057     12060     12062     12054     12057     12060     12063
     12055     12054     12057     12058     12055     12054     12057     12059
     12055     12054     12057     12060     12056     12054     12057     12058
     12056     12054     12057     12059     12056     12054     12057     12060
     12057     12060     12063     12064     12057     12060     12063     12065
     12057     12060     12063     12066     12058     12057     12060     12061
     12058     12057     12060     12062     12058     12057     12060     12063
     12059     12057     12060     12061     12059     12057     12060     12062
     12059     12057     12060     12063     12060     12063     12066     12067
     12060     12063     12066     12068     12060     12063     12066     12069
     12061     12060     12063     12064     12061     12060     12063     12065
     12061     12060     12063     12066     12062     12060     12063     12064
     12062     12060     12063     12065     12062     12060     12063     12066
     12063     12066     12069     12070     12063     12066     12069     12071
     12064     12063     12066     12067     12064     12063     12066     12068
     12064     12063     12066     12069     12065     12063     12066     12067
     12065     12063     12066     12068     12065     12063     12066     12069
     12066     12069     12071     12072     12066     12069     12071     12073
     12067     12066     12069     12070     12067     12066     12069     12071
     12068     12066     12069     12070     12068     12066     12069     12071
     12069     12071     12073     12074     12069     12071     12073     12075
     12069     12071     12073     12076     12070     12069     12071     12072
     12070     12069     12071     12073     12071     12073     12076     12077
     12071     12073     12076     12078     12071     12073     12076     12079
     12072     12071     12073     12074     12072     12071     12073     12075
     12072     12071     12073     12076     12073     12076     12079     12080
     12073     12076     12079     12081     12073     12076     12079     12082
     12074     12073     12076     12077     12074     12073     12076     12078
     12074     12073     12076     12079     12075     12073     12076     12077
     12075     12073     12076     12078     12075     12073     12076     12079
     12076     12079     12082     12083     12076     12079     12082     12084
     12076     12079     12082     12085     12077     12076     12079     12080
     12077     12076     12079     12081     12077     12076     12079     12082
     12078     12076     12079     12080     12078     12076     12079     12081
     12078     12076     12079     12082     12079     12082     12085     12086
     12079     12082     12085     12087     12079     12082     12085     12088
     12080     12079     12082     12083     12080     12079     12082     12084
     12080     12079     12082     12085     12081     12079     12082     12083
     12081     12079     12082     12084     12081     12079     12082     12085
     12082     12085     12088     12089     12082     12085     12088     12090
     12082     12085     12088     12091     12083     12082     12085     12086
     12083     12082     12085     12087     12083     12082     12085     12088
     12084     12082     12085     12086     12084     12082     12085     12087
     12084     12082     12085     12088     12085     12088     12091     12092
     12085     12088     12091     12093     12085     12088     12091     12094
     12086     12085     12088     12089     12086     12085     12088     12090
     12086     12085     12088     12091     12087     12085     12088     12089
     12087     12085     12088     12090     12087     12085     12088     12091
     12088     12091     12094     12095     12088     12091     12094     12096
     12088     12091     12094     12097     12089     12088     12091     12092
     12089     12088     12091     12093     12089     12088     12091     12094
     12090     12088     12091     12092     12090     12088     12091     12093
     12090     12088     12091     12094     12092     12091     12094     12095
     12092     12091     12094     12096     12092     12091     12094     12097
     12093     12091     12094     12095     12093     12091     12094     12096
     12093     12091     12094     12097     12098     12101     12104     12105
     12098     12101     12104     12106     12098     12101     12104     12107
     12099     12098     12101     12102     12099     12098     12101     12103
     12099     12098     12101     12104     12100     12098     12101     12102
     12100     12098     12101     12103     12100     12098     12101     12104
     12101     12104     12107     12108     12101     12104     12107     12109
     12101     12104     12107     12110     12102     12101     12104     12105
     12102     12101     12104     12106     12102     12101     12104     12107
     12103     12101     12104     12105     12103     12101     12104     12106
     12103     12101     12104     12107     12104     12107     12110     12111
     12104     12107     12110     12112     12104     12107     12110     12113
     12105     12104     12107     12108     12105     12104     12107     12109
     12105     12104     12107     12110     12106     12104     12107     12108
     12106     12104     12107     12109     12106     12104     12107     12110
     12107     12110     12113     12114     12107     12110     12113     12115
     12107     12110     12113     12116     12108     12107     12110     12111
     12108     12107     12110     12112     12108     12107     12110     12113
     12109     12107     12110     12111     12109     12107     12110     12112
     12109     12107     12110     12113     12110     12113     12116     12117
     12110     12113     12116     12118     12111     12110     12113     12114
     12111     12110     12113     12115     12111     12110     12113     12116
     12112     12110     12113     12114     12112     12110     12113     12115
     12112     12110     12113     12116     12113     12116     12118     12119
     12113     12116     12118     12120     12114     12113     12116     12117
     12114     12113     12116     12118     12115     12113     12116     12117
     12115     12113     12116     12118     12116     12118     12120     12121
     12116     12118     12120     12122     12116     12118     12120     12123
     12117     12116     12118     12119     12117     12116     12118     12120
     12118     12120     12123     12124     12118     12120     12123     12125
     12118     12120     12123     12126     12119     12118     12120     12121
     12119     12118     12120     12122     12119     12118     12120     12123
     12120     12123     12126     12127     12120     12123     12126     12128
     12120     12123     12126     12129     12121     12120     12123     12124
     12121     12120     12123     12125     12121     12120     12123     12126
     12122     12120     12123     12124     12122     12120     12123     12125
     12122     12120     12123     12126     12123     12126     12129     12130
     12123     12126     12129     12131     12123     12126     12129     12132
     12124     12123     12126     12127     12124     12123     12126     12128
     12124     12123     12126     12129     12125     12123     12126     12127
     12125     12123     12126     12128     12125     12123     12126     12129
     12126     12129     12132     12133     12126     12129     12132     12134
     12126     12129     12132     12135     12127     12126     12129     12130
     12127     12126     12129     12131     12127     12126     12129     12132
     12128     12126     12129     12130     12128     12126     12129     12131
     12128     12126     12129     12132     12129     12132     12135     12136
     12129     12132     12135     12137     12129     12132     12135     12138
     12130     12129     12132     12133     12130     12129     12132     12134
     12130     12129     12132     12135     12131     12129     12132     12133
     12131     12129     12132     12134     12131     12129     12132     12135
     12132     12135     12138     12139     12132     12135     12138     12140
     12132     12135     12138     12141     12133     12132     12135     12136
     12133     12132     12135     12137     12133     12132     12135     12138
     12134     12132     12135     12136     12134     12132     12135     12137
     12134     12132     12135     12138     12135     12138     12141     12142
     12135     12138     12141     12143     12135     12138     12141     12144
     12136     12135     12138     12139     12136     12135     12138     12140
     12136     12135     12138     12141     12137     12135     12138     12139
     12137     12135     12138     12140     12137     12135     12138     12141
     12139     12138     12141     12142     12139     12138     12141     12143
     12139     12138     12141     12144     12140     12138     12141     12142
     12140     12138     12141     12143     12140     12138     12141     12144
     12145     12146     12161     12162     12145     12146     12161     12163
     12145     12146     12161     12167     12146     12145     12149     12150
     12146     12145     12149     12151     12146     12145     12149     12152
     12146     12145     12153     12154     12146     12145     12153     12155
     12146     12145     12153     12156     12146     12145     12157     12158
     12146     12145     12157     12159     12146     12145     12157     12160
     12146     12161     12167     12164     12147     12146     12145     12149
     12147     12146     12145     12153     12147     12146     12145     12157
     12147     12146     12161     12162     12147     12146     12161     12163
     12147     12146     12161     12167     12148     12146     12145     12149
     12148     12146     12145     12153     12148     12146     12145     12157
     12148     12146     12161     12162     12148     12146     12161     12163
     12148     12146     12161     12167     12149     12145     12146     12161
     12149     12145     12153     12154     12149     12145     12153     12155
     12149     12145     12153     12156     12149     12145     12157     12158
     12149     12145     12157     12159     12149     12145     12157     12160
     12150     12149     12145     12153     12150     12149     12145     12157
     12151     12149     12145     12153     12151     12149     12145     12157
     12152     12149     12145     12153     12152     12149     12145     12157
     12153     12145     12146     12161     12153     12145     12157     12158
     12153     12145     12157     12159     12153     12145     12157     12160
     12154     12153     12145     12157     12155     12153     12145     12157
     12156     12153     12145     12157     12157     12145     12146     12161
     12161     12167     12164     12165     12161     12167     12164     12166
     12161     12167     12164     12168     12162     12161     12167     12164
     12163     12161     12167     12164     12164     12168     12169     12170
     12164     12168     12169     12171     12164     12168     12169     12172
     12165     12164     12168     12169     12166     12164     12168     12169
     12167     12164     12168     12169     12168     12169     12172     12173
     12168     12169     12172     12174     12168     12169     12172     12180
     12169     12172     12174     12175     12169     12172     12180     12181
     12169     12172     12180     12182     12169     12172     12180     12183
     12170     12169     12172     12173     12170     12169     12172     12174
     12170     12169     12172     12180     12171     12169     12172     12173
     12171     12169     12172     12174     12171     12169     12172     12180
     12172     12174     12175     12176     12172     12174     12175     12177
     12172     12180     12183     12184     12173     12172     12174     12175
     12173     12172     12180     12181     12173     12172     12180     12182
     12173     12172     12180     12183     12174     12172     12180     12181
     12174     12172     12180     12182     12174     12172     12180     12183
     12174     12175     12177     12178     12174     12175     12177     12179
     12174     12175     12177     12189     12175     12174     12172     12180
     12175     12177     12189     12190     12175     12177     12189     12191
     12175     12177     12189     12192     12176     12175     12177     12178
     12176     12175     12177     12179     12176     12175     12177     12189
     12177     12189     12192     12193     12177     12189     12192     12194
     12177     12189     12192     12195     12178     12177     12189     12190
     12178     12177     12189     12191     12178     12177     12189     12192
     12179     12177     12189     12190     12179     12177     12189     12191
     12179     12177     12189     12192     12180     12183     12184     12185
     12180     12183     12184     12186     12181     12180     12183     12184
     12182     12180     12183     12184     12183     12184     12186     12187
     12183     12184     12186     12188     12183     12184     12186     12236
     12184     12186     12236     12237     12184     12186     12236     12238
     12184     12186     12236     12239     12185     12184     12186     12187
     12185     12184     12186     12188     12185     12184     12186     12236
     12186     12236     12239     12240     12186     12236     12239     12241
     12186     12236     12239     12242     12187     12186     12236     12237
     12187     12186     12236     12238     12187     12186     12236     12239
     12188     12186     12236     12237     12188     12186     12236     12238
     12188     12186     12236     12239     12189     12192     12195     12196
     12189     12192     12195     12197     12189     12192     12195     12198
     12190     12189     12192     12193     12190     12189     12192     12194
     12190     12189     12192     12195     12191     12189     12192     12193
     12191     12189     12192     12194     12191     12189     12192     12195
     12192     12195     12198     12199     12192     12195     12198     12200
     12192     12195     12198     12201     12193     12192     12195     12196
     12193     12192     12195     12197     12193     12192     12195     12198
     12194     12192     12195     12196     12194     12192     12195     12197
     12194     12192     12195     12198     12195     12198     12201     12202
     12195     12198     12201     12203     12195     12198     12201     12204
     12196     12195     12198     12199     12196     12195     12198     12200
     12196     12195     12198     12201     12197     12195     12198     12199
     12197     12195     12198     12200     12197     12195     12198     12201
     12198     12201     12204     12205     12198     12201     12204     12206
     12198     12201     12204     12207     12199     12198     12201     12202
     12199     12198     12201     12203     12199     12198     12201     12204
     12200     12198     12201     12202     12200     12198     12201     12203
     12200     12198     12201     12204     12201     12204     12207     12208
     12201     12204     12207     12209     12202     12201     12204     12205
     12202     12201     12204     12206     12202     12201     12204     12207
     12203     12201     12204     12205     12203     12201     12204     12206
     12203     12201     12204     12207     12204     12207     12209     12210
     12204     12207     12209     12211     12205     12204     12207     12208
     12205     12204     12207     12209     12206     12204     12207     12208
     12206     12204     12207     12209     12207     12209     12211     12212
     12207     12209     12211     12213     12207     12209     12211     12214
     12208     12207     12209     12210     12208     12207     12209     12211
     12209     12211     12214     12215     12209     12211     12214     12216
     12209     12211     12214     12217     12210     12209     12211     12212
     12210     12209     12211     12213     12210     12209     12211     12214
     12211     12214     12217     12218     12211     12214     12217     12219
     12211     12214     12217     12220     12212     12211     12214     12215
     12212     12211     12214     12216     12212     12211     12214     12217
     12213     12211     12214     12215     12213     12211     12214     12216
     12213     12211     12214     12217     12214     12217     12220     12221
     12214     12217     12220     12222     12214     12217     12220     12223
     12215     12214     12217     12218     12215     12214     12217     12219
     12215     12214     12217     12220     12216     12214     12217     12218
     12216     12214     12217     12219     12216     12214     12217     12220
     12217     12220     12223     12224     12217     12220     12223     12225
     12217     12220     12223     12226     12218     12217     12220     12221
     12218     12217     12220     12222     12218     12217     12220     12223
     12219     12217     12220     12221     12219     12217     12220     12222
     12219     12217     12220     12223     12220     12223     12226     12227
     12220     12223     12226     12228     12220     12223     12226     12229
     12221     12220     12223     12224     12221     12220     12223     12225
     12221     12220     12223     12226     12222     12220     12223     12224
     12222     12220     12223     12225     12222     12220     12223     12226
     12223     12226     12229     12230     12223     12226     12229     12231
     12223     12226     12229     12232     12224     12223     12226     12227
     12224     12223     12226     12228     12224     12223     12226     12229
     12225     12223     12226     12227     12225     12223     12226     12228
     12225     12223     12226     12229     12226     12229     12232     12233
     12226     12229     12232     12234     12226     12229     12232     12235
     12227     12226     12229     12230     12227     12226     12229     12231
     12227     12226     12229     12232     12228     12226     12229     12230
     12228     12226     12229     12231     12228     12226     12229     12232
     12230     12229     12232     12233     12230     12229     12232     12234
     12230     12229     12232     12235     12231     12229     12232     12233
     12231     12229     12232     12234     12231     12229     12232     12235
     12236     12239     12242     12243     12236     12239     12242     12244
     12236     12239     12242     12245     12237     12236     12239     12240
     12237     12236     12239     12241     12237     12236     12239     12242
     12238     12236     12239     12240     12238     12236     12239     12241
     12238     12236     12239     12242     12239     12242     12245     12246
     12239     12242     12245     12247     12239     12242     12245     12248
     12240     12239     12242     12243     12240     12239     12242     12244
     12240     12239     12242     12245     12241     12239     12242     12243
     12241     12239     12242     12244     12241     12239     12242     12245
     12242     12245     12248     12249     12242     12245     12248     12250
     12242     12245     12248     12251     12243     12242     12245     12246
     12243     12242     12245     12247     12243     12242     12245     12248
     12244     12242     12245     12246     12244     12242     12245     12247
     12244     12242     12245     12248     12245     12248     12251     12252
     12245     12248     12251     12253     12245     12248     12251     12254
     12246     12245     12248     12249     12246     12245     12248     12250
     12246     12245     12248     12251     12247     12245     12248     12249
     12247     12245     12248     12250     12247     12245     12248     12251
     12248     12251     12254     12255     12248     12251     12254     12256
     12249     12248     12251     12252     12249     12248     12251     12253
     12249     12248     12251     12254     12250     12248     12251     12252
     12250     12248     12251     12253     12250     12248     12251     12254
     12251     12254     12256     12257     12251     12254     12256     12258
     12252     12251     12254     12255     12252     12251     12254     12256
     12253     12251     12254     12255     12253     12251     12254     12256
     12254     12256     12258     12259     12254     12256     12258     12260
     12254     12256     12258     12261     12255     12254     12256     12257
     12255     12254     12256     12258     12256     12258     12261     12262
     12256     12258     12261     12263     12256     12258     12261     12264
     12257     12256     12258     12259     12257     12256     12258     12260
     12257     12256     12258     12261     12258     12261     12264     12265
     12258     12261     12264     12266     12258     12261     12264     12267
     12259     12258     12261     12262     12259     12258     12261     12263
     12259     12258     12261     12264     12260     12258     12261     12262
     12260     12258     12261     12263     12260     12258     12261     12264
     12261     12264     12267     12268     12261     12264     12267     12269
     12261     12264     12267     12270     12262     12261     12264     12265
     12262     12261     12264     12266     12262     12261     12264     12267
     12263     12261     12264     12265     12263     12261     12264     12266
     12263     12261     12264     12267     12264     12267     12270     12271
     12264     12267     12270     12272     12264     12267     12270     12273
     12265     12264     12267     12268     12265     12264     12267     12269
     12265     12264     12267     12270     12266     12264     12267     12268
     12266     12264     12267     12269     12266     12264     12267     12270
     12267     12270     12273     12274     12267     12270     12273     12275
     12267     12270     12273     12276     12268     12267     12270     12271
     12268     12267     12270     12272     12268     12267     12270     12273
     12269     12267     12270     12271     12269     12267     12270     12272
     12269     12267     12270     12273     12270     12273     12276     12277
     12270     12273     12276     12278     12270     12273     12276     12279
     12271     12270     12273     12274     12271     12270     12273     12275
     12271     12270     12273     12276     12272     12270     12273     12274
     12272     12270     12273     12275     12272     12270     12273     12276
     12273     12276     12279     12280     12273     12276     12279     12281
     12273     12276     12279     12282     12274     12273     12276     12277
     12274     12273     12276     12278     12274     12273     12276     12279
     12275     12273     12276     12277     12275     12273     12276     12278
     12275     12273     12276     12279     12277     12276     12279     12280
     12277     12276     12279     12281     12277     12276     12279     12282
     12278     12276     12279     12280     12278     12276     12279     12281
     12278     12276     12279     12282     12283     12284     12299     12300
     12283     12284     12299     12301     12283     12284     12299     12305
     12284     12283     12287     12288     12284     12283     12287     12289
     12284     12283     12287     12290     12284     12283     12291     12292
     12284     12283     12291     12293     12284     12283     12291     12294
     12284     12283     12295     12296     12284     12283     12295     12297
     12284     12283     12295     12298     12284     12299     12305     12302
     12285     12284     12283     12287     12285     12284     12283     12291
     12285     12284     12283     12295     12285     12284     12299     12300
     12285     12284     12299     12301     12285     12284     12299     12305
     12286     12284     12283     12287     12286     12284     12283     12291
     12286     12284     12283     12295     12286     12284     12299     12300
     12286     12284     12299     12301     12286     12284     12299     12305
     12287     12283     12284     12299     12287     12283     12291     12292
     12287     12283     12291     12293     12287     12283     12291     12294
     12287     12283     12295     12296     12287     12283     12295     12297
     12287     12283     12295     12298     12288     12287     12283     12291
     12288     12287     12283     12295     12289     12287     12283     12291
     12289     12287     12283     12295     12290     12287     12283     12291
     12290     12287     12283     12295     12291     12283     12284     12299
     12291     12283     12295     12296     12291     12283     12295     12297
     12291     12283     12295     12298     12292     12291     12283     12295
     12293     12291     12283     12295     12294     12291     12283     12295
     12295     12283     12284     12299     12299     12305     12302     12303
     12299     12305     12302     12304     12299     12305     12302     12306
     12300     12299     12305     12302     12301     12299     12305     12302
     12302     12306     12307     12308     12302     12306     12307     12309
     12302     12306     12307     12310     12303     12302     12306     12307
     12304     12302     12306     12307     12305     12302     12306     12307
     12306     12307     12310     12311     12306     12307     12310     12312
     12306     12307     12310     12318     12307     12310     12312     12313
     12307     12310     12318     12319     12307     12310     12318     12320
     12307     12310     12318     12321     12308     12307     12310     12311
     12308     12307     12310     12312     12308     12307     12310     12318
     12309     12307     12310     12311     12309     12307     12310     12312
     12309     12307     12310     12318     12310     12312     12313     12314
     12310     12312     12313     12315     12310     12318     12321     12322
     12311     12310     12312     12313     12311     12310     12318     12319
     12311     12310     12318     12320     12311     12310     12318     12321
     12312     12310     12318     12319     12312     12310     12318     12320
     12312     12310     12318     12321     12312     12313     12315     12316
     12312     12313     12315     12317     12312     12313     12315     12327
     12313     12312     12310     12318     12313     12315     12327     12328
     12313     12315     12327     12329     12313     12315     12327     12330
     12314     12313     12315     12316     12314     12313     12315     12317
     12314     12313     12315     12327     12315     12327     12330     12331
     12315     12327     12330     12332     12315     12327     12330     12333
     12316     12315     12327     12328     12316     12315     12327     12329
     12316     12315     12327     12330     12317     12315     12327     12328
     12317     12315     12327     12329     12317     12315     12327     12330
     12318     12321     12322     12323     12318     12321     12322     12324
     12319     12318     12321     12322     12320     12318     12321     12322
     12321     12322     12324     12325     12321     12322     12324     12326
     12321     12322     12324     12374     12322     12324     12374     12375
     12322     12324     12374     12376     12322     12324     12374     12377
     12323     12322     12324     12325     12323     12322     12324     12326
     12323     12322     12324     12374     12324     12374     12377     12378
     12324     12374     12377     12379     12324     12374     12377     12380
     12325     12324     12374     12375     12325     12324     12374     12376
     12325     12324     12374     12377     12326     12324     12374     12375
     12326     12324     12374     12376     12326     12324     12374     12377
     12327     12330     12333     12334     12327     12330     12333     12335
     12327     12330     12333     12336     12328     12327     12330     12331
     12328     12327     12330     12332     12328     12327     12330     12333
     12329     12327     12330     12331     12329     12327     12330     12332
     12329     12327     12330     12333     12330     12333     12336     12337
     12330     12333     12336     12338     12330     12333     12336     12339
     12331     12330     12333     12334     12331     12330     12333     12335
     12331     12330     12333     12336     12332     12330     12333     12334
     12332     12330     12333     12335     12332     12330     12333     12336
     12333     12336     12339     12340     12333     12336     12339     12341
     12333     12336     12339     12342     12334     12333     12336     12337
     12334     12333     12336     12338     12334     12333     12336     12339
     12335     12333     12336     12337     12335     12333     12336     12338
     12335     12333     12336     12339     12336     12339     12342     12343
     12336     12339     12342     12344     12336     12339     12342     12345
     12337     12336     12339     12340     12337     12336     12339     12341
     12337     12336     12339     12342     12338     12336     12339     12340
     12338     12336     12339     12341     12338     12336     12339     12342
     12339     12342     12345     12346     12339     12342     12345     12347
     12340     12339     12342     12343     12340     12339     12342     12344
     12340     12339     12342     12345     12341     12339     12342     12343
     12341     12339     12342     12344     12341     12339     12342     12345
     12342     12345     12347     12348     12342     12345     12347     12349
     12343     12342     12345     12346     12343     12342     12345     12347
     12344     12342     12345     12346     12344     12342     12345     12347
     12345     12347     12349     12350     12345     12347     12349     12351
     12345     12347     12349     12352     12346     12345     12347     12348
     12346     12345     12347     12349     12347     12349     12352     12353
     12347     12349     12352     12354     12347     12349     12352     12355
     12348     12347     12349     12350     12348     12347     12349     12351
     12348     12347     12349     12352     12349     12352     12355     12356
     12349     12352     12355     12357     12349     12352     12355     12358
     12350     12349     12352     12353     12350     12349     12352     12354
     12350     12349     12352     12355     12351     12349     12352     12353
     12351     12349     12352     12354     12351     12349     12352     12355
     12352     12355     12358     12359     12352     12355     12358     12360
     12352     12355     12358     12361     12353     12352     12355     12356
     12353     12352     12355     12357     12353     12352     12355     12358
     12354     12352     12355     12356     12354     12352     12355     12357
     12354     12352     12355     12358     12355     12358     12361     12362
     12355     12358     12361     12363     12355     12358     12361     12364
     12356     12355     12358     12359     12356     12355     12358     12360
     12356     12355     12358     12361     12357     12355     12358     12359
     12357     12355     12358     12360     12357     12355     12358     12361
     12358     12361     12364     12365     12358     12361     12364     12366
     12358     12361     12364     12367     12359     12358     12361     12362
     12359     12358     12361     12363     12359     12358     12361     12364
     12360     12358     12361     12362     12360     12358     12361     12363
     12360     12358     12361     12364     12361     12364     12367     12368
     12361     12364     12367     12369     12361     12364     12367     12370
     12362     12361     12364     12365     12362     12361     12364     12366
     12362     12361     12364     12367     12363     12361     12364     12365
     12363     12361     12364     12366     12363     12361     12364     12367
     12364     12367     12370     12371     12364     12367     12370     12372
     12364     12367     12370     12373     12365     12364     12367     12368
     12365     12364     12367     12369     12365     12364     12367     12370
     12366     12364     12367     12368     12366     12364     12367     12369
     12366     12364     12367     12370     12368     12367     12370     12371
     12368     12367     12370     12372     12368     12367     12370     12373
     12369     12367     12370     12371     12369     12367     12370     12372
     12369     12367     12370     12373     12374     12377     12380     12381
     12374     12377     12380     12382     12374     12377     12380     12383
     12375     12374     12377     12378     12375     12374     12377     12379
     12375     12374     12377     12380     12376     12374     12377     12378
     12376     12374     12377     12379     12376     12374     12377     12380
     12377     12380     12383     12384     12377     12380     12383     12385
     12377     12380     12383     12386     12378     12377     12380     12381
     12378     12377     12380     12382     12378     12377     12380     12383
     12379     12377     12380     12381     12379     12377     12380     12382
     12379     12377     12380     12383     12380     12383     12386     12387
     12380     12383     12386     12388     12380     12383     12386     12389
     12381     12380     12383     12384     12381     12380     12383     12385
     12381     12380     12383     12386     12382     12380     12383     12384
     12382     12380     12383     12385     12382     12380     12383     12386
     12383     12386     12389     12390     12383     12386     12389     12391
     12383     12386     12389     12392     12384     12383     12386     12387
     12384     12383     12386     12388     12384     12383     12386     12389
     12385     12383     12386     12387     12385     12383     12386     12388
     12385     12383     12386     12389     12386     12389     12392     12393
     12386     12389     12392     12394     12387     12386     12389     12390
     12387     12386     12389     12391     12387     12386     12389     12392
     12388     12386     12389     12390     12388     12386     12389     12391
     12388     12386     12389     12392     12389     12392     12394     12395
     12389     12392     12394     12396     12390     12389     12392     12393
     12390     12389     12392     12394     12391     12389     12392     12393
     12391     12389     12392     12394     12392     12394     12396     12397
     12392     12394     12396     12398     12392     12394     12396     12399
     12393     12392     12394     12395     12393     12392     12394     12396
     12394     12396     12399     12400     12394     12396     12399     12401
     12394     12396     12399     12402     12395     12394     12396     12397
     12395     12394     12396     12398     12395     12394     12396     12399
     12396     12399     12402     12403     12396     12399     12402     12404
     12396     12399     12402     12405     12397     12396     12399     12400
     12397     12396     12399     12401     12397     12396     12399     12402
     12398     12396     12399     12400     12398     12396     12399     12401
     12398     12396     12399     12402     12399     12402     12405     12406
     12399     12402     12405     12407     12399     12402     12405     12408
     12400     12399     12402     12403     12400     12399     12402     12404
     12400     12399     12402     12405     12401     12399     12402     12403
     12401     12399     12402     12404     12401     12399     12402     12405
     12402     12405     12408     12409     12402     12405     12408     12410
     12402     12405     12408     12411     12403     12402     12405     12406
     12403     12402     12405     12407     12403     12402     12405     12408
     12404     12402     12405     12406     12404     12402     12405     12407
     12404     12402     12405     12408     12405     12408     12411     12412
     12405     12408     12411     12413     12405     12408     12411     12414
     12406     12405     12408     12409     12406     12405     12408     12410
     12406     12405     12408     12411     12407     12405     12408     12409
     12407     12405     12408     12410     12407     12405     12408     12411
     12408     12411     12414     12415     12408     12411     12414     12416
     12408     12411     12414     12417     12409     12408     12411     12412
     12409     12408     12411     12413     12409     12408     12411     12414
     12410     12408     12411     12412     12410     12408     12411     12413
     12410     12408     12411     12414     12411     12414     12417     12418
     12411     12414     12417     12419     12411     12414     12417     12420
     12412     12411     12414     12415     12412     12411     12414     12416
     12412     12411     12414     12417     12413     12411     12414     12415
     12413     12411     12414     12416     12413     12411     12414     12417
     12415     12414     12417     12418     12415     12414     12417     12419
     12415     12414     12417     12420     12416     12414     12417     12418
     12416     12414     12417     12419     12416     12414     12417     12420
     12421     12422     12437     12438     12421     12422     12437     12439
     12421     12422     12437     12443     12422     12421     12425     12426
     12422     12421     12425     12427     12422     12421     12425     12428
     12422     12421     12429     12430     12422     12421     12429     12431
     12422     12421     12429     12432     12422     12421     12433     12434
     12422     12421     12433     12435     12422     12421     12433     12436
     12422     12437     12443     12440     12423     12422     12421     12425
     12423     12422     12421     12429     12423     12422     12421     12433
     12423     12422     12437     12438     12423     12422     12437     12439
     12423     12422     12437     12443     12424     12422     12421     12425
     12424     12422     12421     12429     12424     12422     12421     12433
     12424     12422     12437     12438     12424     12422     12437     12439
     12424     12422     12437     12443     12425     12421     12422     12437
     12425     12421     12429     12430     12425     12421     12429     12431
     12425     12421     12429     12432     12425     12421     12433     12434
     12425     12421     12433     12435     12425     12421     12433     12436
     12426     12425     12421     12429     12426     12425     12421     12433
     12427     12425     12421     12429     12427     12425     12421     12433
     12428     12425     12421     12429     12428     12425     12421     12433
     12429     12421     12422     12437     12429     12421     12433     12434
     12429     12421     12433     12435     12429     12421     12433     12436
     12430     12429     12421     12433     12431     12429     12421     12433
     12432     12429     12421     12433     12433     12421     12422     12437
     12437     12443     12440     12441     12437     12443     12440     12442
     12437     12443     12440     12444     12438     12437     12443     12440
     12439     12437     12443     12440     12440     12444     12445     12446
     12440     12444     12445     12447     12440     12444     12445     12448
     12441     12440     12444     12445     12442     12440     12444     12445
     12443     12440     12444     12445     12444     12445     12448     12449
     12444     12445     12448     12450     12444     12445     12448     12456
     12445     12448     12450     12451     12445     12448     12456     12457
     12445     12448     12456     12458     12445     12448     12456     12459
     12446     12445     12448     12449     12446     12445     12448     12450
     12446     12445     12448     12456     12447     12445     12448     12449
     12447     12445     12448     12450     12447     12445     12448     12456
     12448     12450     12451     12452     12448     12450     12451     12453
     12448     12456     12459     12460     12449     12448     12450     12451
     12449     12448     12456     12457     12449     12448     12456     12458
     12449     12448     12456     12459     12450     12448     12456     12457
     12450     12448     12456     12458     12450     12448     12456     12459
     12450     12451     12453     12454     12450     12451     12453     12455
     12450     12451     12453     12465     12451     12450     12448     12456
     12451     12453     12465     12466     12451     12453     12465     12467
     12451     12453     12465     12468     12452     12451     12453     12454
     12452     12451     12453     12455     12452     12451     12453     12465
     12453     12465     12468     12469     12453     12465     12468     12470
     12453     12465     12468     12471     12454     12453     12465     12466
     12454     12453     12465     12467     12454     12453     12465     12468
     12455     12453     12465     12466     12455     12453     12465     12467
     12455     12453     12465     12468     12456     12459     12460     12461
     12456     12459     12460     12462     12457     12456     12459     12460
     12458     12456     12459     12460     12459     12460     12462     12463
     12459     12460     12462     12464     12459     12460     12462     12512
     12460     12462     12512     12513     12460     12462     12512     12514
     12460     12462     12512     12515     12461     12460     12462     12463
     12461     12460     12462     12464     12461     12460     12462     12512
     12462     12512     12515     12516     12462     12512     12515     12517
     12462     12512     12515     12518     12463     12462     12512     12513
     12463     12462     12512     12514     12463     12462     12512     12515
     12464     12462     12512     12513     12464     12462     12512     12514
     12464     12462     12512     12515     12465     12468     12471     12472
     12465     12468     12471     12473     12465     12468     12471     12474
     12466     12465     12468     12469     12466     12465     12468     12470
     12466     12465     12468     12471     12467     12465     12468     12469
     12467     12465     12468     12470     12467     12465     12468     12471
     12468     12471     12474     12475     12468     12471     12474     12476
     12468     12471     12474     12477     12469     12468     12471     12472
     12469     12468     12471     12473     12469     12468     12471     12474
     12470     12468     12471     12472     12470     12468     12471     12473
     12470     12468     12471     12474     12471     12474     12477     12478
     12471     12474     12477     12479     12471     12474     12477     12480
     12472     12471     12474     12475     12472     12471     12474     12476
     12472     12471     12474     12477     12473     12471     12474     12475
     12473     12471     12474     12476     12473     12471     12474     12477
     12474     12477     12480     12481     12474     12477     12480     12482
     12474     12477     12480     12483     12475     12474     12477     12478
     12475     12474     12477     12479     12475     12474     12477     12480
     12476     12474     12477     12478     12476     12474     12477     12479
     12476     12474     12477     12480     12477     12480     12483     12484
     12477     12480     12483     12485     12478     12477     12480     12481
     12478     12477     12480     12482     12478     12477     12480     12483
     12479     12477     12480     12481     12479     12477     12480     12482
     12479     12477     12480     12483     12480     12483     12485     12486
     12480     12483     12485     12487     12481     12480     12483     12484
     12481     12480     12483     12485     12482     12480     12483     12484
     12482     12480     12483     12485     12483     12485     12487     12488
     12483     12485     12487     12489     12483     12485     12487     12490
     12484     12483     12485     12486     12484     12483     12485     12487
     12485     12487     12490     12491     12485     12487     12490     12492
     12485     12487     12490     12493     12486     12485     12487     12488
     12486     12485     12487     12489     12486     12485     12487     12490
     12487     12490     12493     12494     12487     12490     12493     12495
     12487     12490     12493     12496     12488     12487     12490     12491
     12488     12487     12490     12492     12488     12487     12490     12493
     12489     12487     12490     12491     12489     12487     12490     12492
     12489     12487     12490     12493     12490     12493     12496     12497
     12490     12493     12496     12498     12490     12493     12496     12499
     12491     12490     12493     12494     12491     12490     12493     12495
     12491     12490     12493     12496     12492     12490     12493     12494
     12492     12490     12493     12495     12492     12490     12493     12496
     12493     12496     12499     12500     12493     12496     12499     12501
     12493     12496     12499     12502     12494     12493     12496     12497
     12494     12493     12496     12498     12494     12493     12496     12499
     12495     12493     12496     12497     12495     12493     12496     12498
     12495     12493     12496     12499     12496     12499     12502     12503
     12496     12499     12502     12504     12496     12499     12502     12505
     12497     12496     12499     12500     12497     12496     12499     12501
     12497     12496     12499     12502     12498     12496     12499     12500
     12498     12496     12499     12501     12498     12496     12499     12502
     12499     12502     12505     12506     12499     12502     12505     12507
     12499     12502     12505     12508     12500     12499     12502     12503
     12500     12499     12502     12504     12500     12499     12502     12505
     12501     12499     12502     12503     12501     12499     12502     12504
     12501     12499     12502     12505     12502     12505     12508     12509
     12502     12505     12508     12510     12502     12505     12508     12511
     12503     12502     12505     12506     12503     12502     12505     12507
     12503     12502     12505     12508     12504     12502     12505     12506
     12504     12502     12505     12507     12504     12502     12505     12508
     12506     12505     12508     12509     12506     12505     12508     12510
     12506     12505     12508     12511     12507     12505     12508     12509
     12507     12505     12508     12510     12507     12505     12508     12511
     12512     12515     12518     12519     12512     12515     12518     12520
     12512     12515     12518     12521     12513     12512     12515     12516
     12513     12512     12515     12517     12513     12512     12515     12518
     12514     12512     12515     12516     12514     12512     12515     12517
     12514     12512     12515     12518     12515     12518     12521     12522
     12515     12518     12521     12523     12515     12518     12521     12524
     12516     12515     12518     12519     12516     12515     12518     12520
     12516     12515     12518     12521     12517     12515     12518     12519
     12517     12515     12518     12520     12517     12515     12518     12521
     12518     12521     12524     12525     12518     12521     12524     12526
     12518     12521     12524     12527     12519     12518     12521     12522
     12519     12518     12521     12523     12519     12518     12521     12524
     12520     12518     12521     12522     12520     12518     12521     12523
     12520     12518     12521     12524     12521     12524     12527     12528
     12521     12524     12527     12529     12521     12524     12527     12530
     12522     12521     12524     12525     12522     12521     12524     12526
     12522     12521     12524     12527     12523     12521     12524     12525
     12523     12521     12524     12526     12523     12521     12524     12527
     12524     12527     12530     12531     12524     12527     12530     12532
     12525     12524     12527     12528     12525     12524     12527     12529
     12525     12524     12527     12530     12526     12524     12527     12528
     12526     12524     12527     12529     12526     12524     12527     12530
     12527     12530     12532     12533     12527     12530     12532     12534
     12528     12527     12530     12531     12528     12527     12530     12532
     12529     12527     12530     12531     12529     12527     12530     12532
     12530     12532     12534     12535     12530     12532     12534     12536
     12530     12532     12534     12537     12531     12530     12532     12533
     12531     12530     12532     12534     12532     12534     12537     12538
     12532     12534     12537     12539     12532     12534     12537     12540
     12533     12532     12534     12535     12533     12532     12534     12536
     12533     12532     12534     12537     12534     12537     12540     12541
     12534     12537     12540     12542     12534     12537     12540     12543
     12535     12534     12537     12538     12535     12534     12537     12539
     12535     12534     12537     12540     12536     12534     12537     12538
     12536     12534     12537     12539     12536     12534     12537     12540
     12537     12540     12543     12544     12537     12540     12543     12545
     12537     12540     12543     12546     12538     12537     12540     12541
     12538     12537     12540     12542     12538     12537     12540     12543
     12539     12537     12540     12541     12539     12537     12540     12542
     12539     12537     12540     12543     12540     12543     12546     12547
     12540     12543     12546     12548     12540     12543     12546     12549
     12541     12540     12543     12544     12541     12540     12543     12545
     12541     12540     12543     12546     12542     12540     12543     12544
     12542     12540     12543     12545     12542     12540     12543     12546
     12543     12546     12549     12550     12543     12546     12549     12551
     12543     12546     12549     12552     12544     12543     12546     12547
     12544     12543     12546     12548     12544     12543     12546     12549
     12545     12543     12546     12547     12545     12543     12546     12548
     12545     12543     12546     12549     12546     12549     12552     12553
     12546     12549     12552     12554     12546     12549     12552     12555
     12547     12546     12549     12550     12547     12546     12549     12551
     12547     12546     12549     12552     12548     12546     12549     12550
     12548     12546     12549     12551     12548     12546     12549     12552
     12549     12552     12555     12556     12549     12552     12555     12557
     12549     12552     12555     12558     12550     12549     12552     12553
     12550     12549     12552     12554     12550     12549     12552     12555
     12551     12549     12552     12553     12551     12549     12552     12554
     12551     12549     12552     12555     12553     12552     12555     12556
     12553     12552     12555     12557     12553     12552     12555     12558
     12554     12552     12555     12556     12554     12552     12555     12557
     12554     12552     12555     12558     12559     12560     12575     12576
     12559     12560     12575     12577     12559     12560     12575     12581
     12560     12559     12563     12564     12560     12559     12563     12565
     12560     12559     12563     12566     12560     12559     12567     12568
     12560     12559     12567     12569     12560     12559     12567     12570
     12560     12559     12571     12572     12560     12559     12571     12573
     12560     12559     12571     12574     12560     12575     12581     12578
     12561     12560     12559     12563     12561     12560     12559     12567
     12561     12560     12559     12571     12561     12560     12575     12576
     12561     12560     12575     12577     12561     12560     12575     12581
     12562     12560     12559     12563     12562     12560     12559     12567
     12562     12560     12559     12571     12562     12560     12575     12576
     12562     12560     12575     12577     12562     12560     12575     12581
     12563     12559     12560     12575     12563     12559     12567     12568
     12563     12559     12567     12569     12563     12559     12567     12570
     12563     12559     12571     12572     12563     12559     12571     12573
     12563     12559     12571     12574     12564     12563     12559     12567
     12564     12563     12559     12571     12565     12563     12559     12567
     12565     12563     12559     12571     12566     12563     12559     12567
     12566     12563     12559     12571     12567     12559     12560     12575
     12567     12559     12571     12572     12567     12559     12571     12573
     12567     12559     12571     12574     12568     12567     12559     12571
     12569     12567     12559     12571     12570     12567     12559     12571
     12571     12559     12560     12575     12575     12581     12578     12579
     12575     12581     12578     12580     12575     12581     12578     12582
     12576     12575     12581     12578     12577     12575     12581     12578
     12578     12582     12583     12584     12578     12582     12583     12585
     12578     12582     12583     12586     12579     12578     12582     12583
     12580     12578     12582     12583     12581     12578     12582     12583
     12582     12583     12586     12587     12582     12583     12586     12588
     12582     12583     12586     12594     12583     12586     12588     12589
     12583     12586     12594     12595     12583     12586     12594     12596
     12583     12586     12594     12597     12584     12583     12586     12587
     12584     12583     12586     12588     12584     12583     12586     12594
     12585     12583     12586     12587     12585     12583     12586     12588
     12585     12583     12586     12594     12586     12588     12589     12590
     12586     12588     12589     12591     12586     12594     12597     12598
     12587     12586     12588     12589     12587     12586     12594     12595
     12587     12586     12594     12596     12587     12586     12594     12597
     12588     12586     12594     12595     12588     12586     12594     12596
     12588     12586     12594     12597     12588     12589     12591     12592
     12588     12589     12591     12593     12588     12589     12591     12603
     12589     12588     12586     12594     12589     12591     12603     12604
     12589     12591     12603     12605     12589     12591     12603     12606
     12590     12589     12591     12592     12590     12589     12591     12593
     12590     12589     12591     12603     12591     12603     12606     12607
     12591     12603     12606     12608     12591     12603     12606     12609
     12592     12591     12603     12604     12592     12591     12603     12605
     12592     12591     12603     12606     12593     12591     12603     12604
     12593     12591     12603     12605     12593     12591     12603     12606
     12594     12597     12598     12599     12594     12597     12598     12600
     12595     12594     12597     12598     12596     12594     12597     12598
     12597     12598     12600     12601     12597     12598     12600     12602
     12597     12598     12600     12650     12598     12600     12650     12651
     12598     12600     12650     12652     12598     12600     12650     12653
     12599     12598     12600     12601     12599     12598     12600     12602
     12599     12598     12600     12650     12600     12650     12653     12654
     12600     12650     12653     12655     12600     12650     12653     12656
     12601     12600     12650     12651     12601     12600     12650     12652
     12601     12600     12650     12653     12602     12600     12650     12651
     12602     12600     12650     12652     12602     12600     12650     12653
     12603     12606     12609     12610     12603     12606     12609     12611
     12603     12606     12609     12612     12604     12603     12606     12607
     12604     12603     12606     12608     12604     12603     12606     12609
     12605     12603     12606     12607     12605     12603     12606     12608
     12605     12603     12606     12609     12606     12609     12612     12613
     12606     12609     12612     12614     12606     12609     12612     12615
     12607     12606     12609     12610     12607     12606     12609     12611
     12607     12606     12609     12612     12608     12606     12609     12610
     12608     12606     12609     12611     12608     12606     12609     12612
     12609     12612     12615     12616     12609     12612     12615     12617
     12609     12612     12615     12618     12610     12609     12612     12613
     12610     12609     12612     12614     12610     12609     12612     12615
     12611     12609     12612     12613     12611     12609     12612     12614
     12611     12609     12612     12615     12612     12615     12618     12619
     12612     12615     12618     12620     12612     12615     12618     12621
     12613     12612     12615     12616     12613     12612     12615     12617
     12613     12612     12615     12618     12614     12612     12615     12616
     12614     12612     12615     12617     12614     12612     12615     12618
     12615     12618     12621     12622     12615     12618     12621     12623
     12616     12615     12618     12619     12616     12615     12618     12620
     12616     12615     12618     12621     12617     12615     12618     12619
     12617     12615     12618     12620     12617     12615     12618     12621
     12618     12621     12623     12624     12618     12621     12623     12625
     12619     12618     12621     12622     12619     12618     12621     12623
     12620     12618     12621     12622     12620     12618     12621     12623
     12621     12623     12625     12626     12621     12623     12625     12627
     12621     12623     12625     12628     12622     12621     12623     12624
     12622     12621     12623     12625     12623     12625     12628     12629
     12623     12625     12628     12630     12623     12625     12628     12631
     12624     12623     12625     12626     12624     12623     12625     12627
     12624     12623     12625     12628     12625     12628     12631     12632
     12625     12628     12631     12633     12625     12628     12631     12634
     12626     12625     12628     12629     12626     12625     12628     12630
     12626     12625     12628     12631     12627     12625     12628     12629
     12627     12625     12628     12630     12627     12625     12628     12631
     12628     12631     12634     12635     12628     12631     12634     12636
     12628     12631     12634     12637     12629     12628     12631     12632
     12629     12628     12631     12633     12629     12628     12631     12634
     12630     12628     12631     12632     12630     12628     12631     12633
     12630     12628     12631     12634     12631     12634     12637     12638
     12631     12634     12637     12639     12631     12634     12637     12640
     12632     12631     12634     12635     12632     12631     12634     12636
     12632     12631     12634     12637     12633     12631     12634     12635
     12633     12631     12634     12636     12633     12631     12634     12637
     12634     12637     12640     12641     12634     12637     12640     12642
     12634     12637     12640     12643     12635     12634     12637     12638
     12635     12634     12637     12639     12635     12634     12637     12640
     12636     12634     12637     12638     12636     12634     12637     12639
     12636     12634     12637     12640     12637     12640     12643     12644
     12637     12640     12643     12645     12637     12640     12643     12646
     12638     12637     12640     12641     12638     12637     12640     12642
     12638     12637     12640     12643     12639     12637     12640     12641
     12639     12637     12640     12642     12639     12637     12640     12643
     12640     12643     12646     12647     12640     12643     12646     12648
     12640     12643     12646     12649     12641     12640     12643     12644
     12641     12640     12643     12645     12641     12640     12643     12646
     12642     12640     12643     12644     12642     12640     12643     12645
     12642     12640     12643     12646     12644     12643     12646     12647
     12644     12643     12646     12648     12644     12643     12646     12649
     12645     12643     12646     12647     12645     12643     12646     12648
     12645     12643     12646     12649     12650     12653     12656     12657
     12650     12653     12656     12658     12650     12653     12656     12659
     12651     12650     12653     12654     12651     12650     12653     12655
     12651     12650     12653     12656     12652     12650     12653     12654
     12652     12650     12653     12655     12652     12650     12653     12656
     12653     12656     12659     12660     12653     12656     12659     12661
     12653     12656     12659     12662     12654     12653     12656     12657
     12654     12653     12656     12658     12654     12653     12656     12659
     12655     12653     12656     12657     12655     12653     12656     12658
     12655     12653     12656     12659     12656     12659     12662     12663
     12656     12659     12662     12664     12656     12659     12662     12665
     12657     12656     12659     12660     12657     12656     12659     12661
     12657     12656     12659     12662     12658     12656     12659     12660
     12658     12656     12659     12661     12658     12656     12659     12662
     12659     12662     12665     12666     12659     12662     12665     12667
     12659     12662     12665     12668     12660     12659     12662     12663
     12660     12659     12662     12664     12660     12659     12662     12665
     12661     12659     12662     12663     12661     12659     12662     12664
     12661     12659     12662     12665     12662     12665     12668     12669
     12662     12665     12668     12670     12663     12662     12665     12666
     12663     12662     12665     12667     12663     12662     12665     12668
     12664     12662     12665     12666     12664     12662     12665     12667
     12664     12662     12665     12668     12665     12668     12670     12671
     12665     12668     12670     12672     12666     12665     12668     12669
     12666     12665     12668     12670     12667     12665     12668     12669
     12667     12665     12668     12670     12668     12670     12672     12673
     12668     12670     12672     12674     12668     12670     12672     12675
     12669     12668     12670     12671     12669     12668     12670     12672
     12670     12672     12675     12676     12670     12672     12675     12677
     12670     12672     12675     12678     12671     12670     12672     12673
     12671     12670     12672     12674     12671     12670     12672     12675
     12672     12675     12678     12679     12672     12675     12678     12680
     12672     12675     12678     12681     12673     12672     12675     12676
     12673     12672     12675     12677     12673     12672     12675     12678
     12674     12672     12675     12676     12674     12672     12675     12677
     12674     12672     12675     12678     12675     12678     12681     12682
     12675     12678     12681     12683     12675     12678     12681     12684
     12676     12675     12678     12679     12676     12675     12678     12680
     12676     12675     12678     12681     12677     12675     12678     12679
     12677     12675     12678     12680     12677     12675     12678     12681
     12678     12681     12684     12685     12678     12681     12684     12686
     12678     12681     12684     12687     12679     12678     12681     12682
     12679     12678     12681     12683     12679     12678     12681     12684
     12680     12678     12681     12682     12680     12678     12681     12683
     12680     12678     12681     12684     12681     12684     12687     12688
     12681     12684     12687     12689     12681     12684     12687     12690
     12682     12681     12684     12685     12682     12681     12684     12686
     12682     12681     12684     12687     12683     12681     12684     12685
     12683     12681     12684     12686     12683     12681     12684     12687
     12684     12687     12690     12691     12684     12687     12690     12692
     12684     12687     12690     12693     12685     12684     12687     12688
     12685     12684     12687     12689     12685     12684     12687     12690
     12686     12684     12687     12688     12686     12684     12687     12689
     12686     12684     12687     12690     12687     12690     12693     12694
     12687     12690     12693     12695     12687     12690     12693     12696
     12688     12687     12690     12691     12688     12687     12690     12692
     12688     12687     12690     12693     12689     12687     12690     12691
     12689     12687     12690     12692     12689     12687     12690     12693
     12691     12690     12693     12694     12691     12690     12693     12695
     12691     12690     12693     12696     12692     12690     12693     12694
     12692     12690     12693     12695     12692     12690     12693     12696
     12697     12698     12713     12714     12697     12698     12713     12715
     12697     12698     12713     12719     12698     12697     12701     12702
     12698     12697     12701     12703     12698     12697     12701     12704
     12698     12697     12705     12706     12698     12697     12705     12707
     12698     12697     12705     12708     12698     12697     12709     12710
     12698     12697     12709     12711     12698     12697     12709     12712
     12698     12713     12719     12716     12699     12698     12697     12701
     12699     12698     12697     12705     12699     12698     12697     12709
     12699     12698     12713     12714     12699     12698     12713     12715
     12699     12698     12713     12719     12700     12698     12697     12701
     12700     12698     12697     12705     12700     12698     12697     12709
     12700     12698     12713     12714     12700     12698     12713     12715
     12700     12698     12713     12719     12701     12697     12698     12713
     12701     12697     12705     12706     12701     12697     12705     12707
     12701     12697     12705     12708     12701     12697     12709     12710
     12701     12697     12709     12711     12701     12697     12709     12712
     12702     12701     12697     12705     12702     12701     12697     12709
     12703     12701     12697     12705     12703     12701     12697     12709
     12704     12701     12697     12705     12704     12701     12697     12709
     12705     12697     12698     12713     12705     12697     12709     12710
     12705     12697     12709     12711     12705     12697     12709     12712
     12706     12705     12697     12709     12707     12705     12697     12709
     12708     12705     12697     12709     12709     12697     12698     12713
     12713     12719     12716     12717     12713     12719     12716     12718
     12713     12719     12716     12720     12714     12713     12719     12716
     12715     12713     12719     12716     12716     12720     12721     12722
     12716     12720     12721     12723     12716     12720     12721     12724
     12717     12716     12720     12721     12718     12716     12720     12721
     12719     12716     12720     12721     12720     12721     12724     12725
     12720     12721     12724     12726     12720     12721     12724     12732
     12721     12724     12726     12727     12721     12724     12732     12733
     12721     12724     12732     12734     12721     12724     12732     12735
     12722     12721     12724     12725     12722     12721     12724     12726
     12722     12721     12724     12732     12723     12721     12724     12725
     12723     12721     12724     12726     12723     12721     12724     12732
     12724     12726     12727     12728     12724     12726     12727     12729
     12724     12732     12735     12736     12725     12724     12726     12727
     12725     12724     12732     12733     12725     12724     12732     12734
     12725     12724     12732     12735     12726     12724     12732     12733
     12726     12724     12732     12734     12726     12724     12732     12735
     12726     12727     12729     12730     12726     12727     12729     12731
     12726     12727     12729     12741     12727     12726     12724     12732
     12727     12729     12741     12742     12727     12729     12741     12743
     12727     12729     12741     12744     12728     12727     12729     12730
     12728     12727     12729     12731     12728     12727     12729     12741
     12729     12741     12744     12745     12729     12741     12744     12746
     12729     12741     12744     12747     12730     12729     12741     12742
     12730     12729     12741     12743     12730     12729     12741     12744
     12731     12729     12741     12742     12731     12729     12741     12743
     12731     12729     12741     12744     12732     12735     12736     12737
     12732     12735     12736     12738     12733     12732     12735     12736
     12734     12732     12735     12736     12735     12736     12738     12739
     12735     12736     12738     12740     12735     12736     12738     12788
     12736     12738     12788     12789     12736     12738     12788     12790
     12736     12738     12788     12791     12737     12736     12738     12739
     12737     12736     12738     12740     12737     12736     12738     12788
     12738     12788     12791     12792     12738     12788     12791     12793
     12738     12788     12791     12794     12739     12738     12788     12789
     12739     12738     12788     12790     12739     12738     12788     12791
     12740     12738     12788     12789     12740     12738     12788     12790
     12740     12738     12788     12791     12741     12744     12747     12748
     12741     12744     12747     12749     12741     12744     12747     12750
     12742     12741     12744     12745     12742     12741     12744     12746
     12742     12741     12744     12747     12743     12741     12744     12745
     12743     12741     12744     12746     12743     12741     12744     12747
     12744     12747     12750     12751     12744     12747     12750     12752
     12744     12747     12750     12753     12745     12744     12747     12748
     12745     12744     12747     12749     12745     12744     12747     12750
     12746     12744     12747     12748     12746     12744     12747     12749
     12746     12744     12747     12750     12747     12750     12753     12754
     12747     12750     12753     12755     12747     12750     12753     12756
     12748     12747     12750     12751     12748     12747     12750     12752
     12748     12747     12750     12753     12749     12747     12750     12751
     12749     12747     12750     12752     12749     12747     12750     12753
     12750     12753     12756     12757     12750     12753     12756     12758
     12750     12753     12756     12759     12751     12750     12753     12754
     12751     12750     12753     12755     12751     12750     12753     12756
     12752     12750     12753     12754     12752     12750     12753     12755
     12752     12750     12753     12756     12753     12756     12759     12760
     12753     12756     12759     12761     12754     12753     12756     12757
     12754     12753     12756     12758     12754     12753     12756     12759
     12755     12753     12756     12757     12755     12753     12756     12758
     12755     12753     12756     12759     12756     12759     12761     12762
     12756     12759     12761     12763     12757     12756     12759     12760
     12757     12756     12759     12761     12758     12756     12759     12760
     12758     12756     12759     12761     12759     12761     12763     12764
     12759     12761     12763     12765     12759     12761     12763     12766
     12760     12759     12761     12762     12760     12759     12761     12763
     12761     12763     12766     12767     12761     12763     12766     12768
     12761     12763     12766     12769     12762     12761     12763     12764
     12762     12761     12763     12765     12762     12761     12763     12766
     12763     12766     12769     12770     12763     12766     12769     12771
     12763     12766     12769     12772     12764     12763     12766     12767
     12764     12763     12766     12768     12764     12763     12766     12769
     12765     12763     12766     12767     12765     12763     12766     12768
     12765     12763     12766     12769     12766     12769     12772     12773
     12766     12769     12772     12774     12766     12769     12772     12775
     12767     12766     12769     12770     12767     12766     12769     12771
     12767     12766     12769     12772     12768     12766     12769     12770
     12768     12766     12769     12771     12768     12766     12769     12772
     12769     12772     12775     12776     12769     12772     12775     12777
     12769     12772     12775     12778     12770     12769     12772     12773
     12770     12769     12772     12774     12770     12769     12772     12775
     12771     12769     12772     12773     12771     12769     12772     12774
     12771     12769     12772     12775     12772     12775     12778     12779
     12772     12775     12778     12780     12772     12775     12778     12781
     12773     12772     12775     12776     12773     12772     12775     12777
     12773     12772     12775     12778     12774     12772     12775     12776
     12774     12772     12775     12777     12774     12772     12775     12778
     12775     12778     12781     12782     12775     12778     12781     12783
     12775     12778     12781     12784     12776     12775     12778     12779
     12776     12775     12778     12780     12776     12775     12778     12781
     12777     12775     12778     12779     12777     12775     12778     12780
     12777     12775     12778     12781     12778     12781     12784     12785
     12778     12781     12784     12786     12778     12781     12784     12787
     12779     12778     12781     12782     12779     12778     12781     12783
     12779     12778     12781     12784     12780     12778     12781     12782
     12780     12778     12781     12783     12780     12778     12781     12784
     12782     12781     12784     12785     12782     12781     12784     12786
     12782     12781     12784     12787     12783     12781     12784     12785
     12783     12781     12784     12786     12783     12781     12784     12787
     12788     12791     12794     12795     12788     12791     12794     12796
     12788     12791     12794     12797     12789     12788     12791     12792
     12789     12788     12791     12793     12789     12788     12791     12794
     12790     12788     12791     12792     12790     12788     12791     12793
     12790     12788     12791     12794     12791     12794     12797     12798
     12791     12794     12797     12799     12791     12794     12797     12800
     12792     12791     12794     12795     12792     12791     12794     12796
     12792     12791     12794     12797     12793     12791     12794     12795
     12793     12791     12794     12796     12793     12791     12794     12797
     12794     12797     12800     12801     12794     12797     12800     12802
     12794     12797     12800     12803     12795     12794     12797     12798
     12795     12794     12797     12799     12795     12794     12797     12800
     12796     12794     12797     12798     12796     12794     12797     12799
     12796     12794     12797     12800     12797     12800     12803     12804
     12797     12800     12803     12805     12797     12800     12803     12806
     12798     12797     12800     12801     12798     12797     12800     12802
     12798     12797     12800     12803     12799     12797     12800     12801
     12799     12797     12800     12802     12799     12797     12800     12803
     12800     12803     12806     12807     12800     12803     12806     12808
     12801     12800     12803     12804     12801     12800     12803     12805
     12801     12800     12803     12806     12802     12800     12803     12804
     12802     12800     12803     12805     12802     12800     12803     12806
     12803     12806     12808     12809     12803     12806     12808     12810
     12804     12803     12806     12807     12804     12803     12806     12808
     12805     12803     12806     12807     12805     12803     12806     12808
     12806     12808     12810     12811     12806     12808     12810     12812
     12806     12808     12810     12813     12807     12806     12808     12809
     12807     12806     12808     12810     12808     12810     12813     12814
     12808     12810     12813     12815     12808     12810     12813     12816
     12809     12808     12810     12811     12809     12808     12810     12812
     12809     12808     12810     12813     12810     12813     12816     12817
     12810     12813     12816     12818     12810     12813     12816     12819
     12811     12810     12813     12814     12811     12810     12813     12815
     12811     12810     12813     12816     12812     12810     12813     12814
     12812     12810     12813     12815     12812     12810     12813     12816
     12813     12816     12819     12820     12813     12816     12819     12821
     12813     12816     12819     12822     12814     12813     12816     12817
     12814     12813     12816     12818     12814     12813     12816     12819
     12815     12813     12816     12817     12815     12813     12816     12818
     12815     12813     12816     12819     12816     12819     12822     12823
     12816     12819     12822     12824     12816     12819     12822     12825
     12817     12816     12819     12820     12817     12816     12819     12821
     12817     12816     12819     12822     12818     12816     12819     12820
     12818     12816     12819     12821     12818     12816     12819     12822
     12819     12822     12825     12826     12819     12822     12825     12827
     12819     12822     12825     12828     12820     12819     12822     12823
     12820     12819     12822     12824     12820     12819     12822     12825
     12821     12819     12822     12823     12821     12819     12822     12824
     12821     12819     12822     12825     12822     12825     12828     12829
     12822     12825     12828     12830     12822     12825     12828     12831
     12823     12822     12825     12826     12823     12822     12825     12827
     12823     12822     12825     12828     12824     12822     12825     12826
     12824     12822     12825     12827     12824     12822     12825     12828
     12825     12828     12831     12832     12825     12828     12831     12833
     12825     12828     12831     12834     12826     12825     12828     12829
     12826     12825     12828     12830     12826     12825     12828     12831
     12827     12825     12828     12829     12827     12825     12828     12830
     12827     12825     12828     12831     12829     12828     12831     12832
     12829     12828     12831     12833     12829     12828     12831     12834
     12830     12828     12831     12832     12830     12828     12831     12833
     12830     12828     12831     12834     12835     12836     12851     12852
     12835     12836     12851     12853     12835     12836     12851     12857
     12836     12835     12839     12840     12836     12835     12839     12841
     12836     12835     12839     12842     12836     12835     12843     12844
     12836     12835     12843     12845     12836     12835     12843     12846
     12836     12835     12847     12848     12836     12835     12847     12849
     12836     12835     12847     12850     12836     12851     12857     12854
     12837     12836     12835     12839     12837     12836     12835     12843
     12837     12836     12835     12847     12837     12836     12851     12852
     12837     12836     12851     12853     12837     12836     12851     12857
     12838     12836     12835     12839     12838     12836     12835     12843
     12838     12836     12835     12847     12838     12836     12851     12852
     12838     12836     12851     12853     12838     12836     12851     12857
     12839     12835     12836     12851     12839     12835     12843     12844
     12839     12835     12843     12845     12839     12835     12843     12846
     12839     12835     12847     12848     12839     12835     12847     12849
     12839     12835     12847     12850     12840     12839     12835     12843
     12840     12839     12835     12847     12841     12839     12835     12843
     12841     12839     12835     12847     12842     12839     12835     12843
     12842     12839     12835     12847     12843     12835     12836     12851
     12843     12835     12847     12848     12843     12835     12847     12849
     12843     12835     12847     12850     12844     12843     12835     12847
     12845     12843     12835     12847     12846     12843     12835     12847
     12847     12835     12836     12851     12851     12857     12854     12855
     12851     12857     12854     12856     12851     12857     12854     12858
     12852     12851     12857     12854     12853     12851     12857     12854
     12854     12858     12859     12860     12854     12858     12859     12861
     12854     12858     12859     12862     12855     12854     12858     12859
     12856     12854     12858     12859     12857     12854     12858     12859
     12858     12859     12862     12863     12858     12859     12862     12864
     12858     12859     12862     12870     12859     12862     12864     12865
     12859     12862     12870     12871     12859     12862     12870     12872
     12859     12862     12870     12873     12860     12859     12862     12863
     12860     12859     12862     12864     12860     12859     12862     12870
     12861     12859     12862     12863     12861     12859     12862     12864
     12861     12859     12862     12870     12862     12864     12865     12866
     12862     12864     12865     12867     12862     12870     12873     12874
     12863     12862     12864     12865     12863     12862     12870     12871
     12863     12862     12870     12872     12863     12862     12870     12873
     12864     12862     12870     12871     12864     12862     12870     12872
     12864     12862     12870     12873     12864     12865     12867     12868
     12864     12865     12867     12869     12864     12865     12867     12879
     12865     12864     12862     12870     12865     12867     12879     12880
     12865     12867     12879     12881     12865     12867     12879     12882
     12866     12865     12867     12868     12866     12865     12867     12869
     12866     12865     12867     12879     12867     12879     12882     12883
     12867     12879     12882     12884     12867     12879     12882     12885
     12868     12867     12879     12880     12868     12867     12879     12881
     12868     12867     12879     12882     12869     12867     12879     12880
     12869     12867     12879     12881     12869     12867     12879     12882
     12870     12873     12874     12875     12870     12873     12874     12876
     12871     12870     12873     12874     12872     12870     12873     12874
     12873     12874     12876     12877     12873     12874     12876     12878
     12873     12874     12876     12926     12874     12876     12926     12927
     12874     12876     12926     12928     12874     12876     12926     12929
     12875     12874     12876     12877     12875     12874     12876     12878
     12875     12874     12876     12926     12876     12926     12929     12930
     12876     12926     12929     12931     12876     12926     12929     12932
     12877     12876     12926     12927     12877     12876     12926     12928
     12877     12876     12926     12929     12878     12876     12926     12927
     12878     12876     12926     12928     12878     12876     12926     12929
     12879     12882     12885     12886     12879     12882     12885     12887
     12879     12882     12885     12888     12880     12879     12882     12883
     12880     12879     12882     12884     12880     12879     12882     12885
     12881     12879     12882     12883     12881     12879     12882     12884
     12881     12879     12882     12885     12882     12885     12888     12889
     12882     12885     12888     12890     12882     12885     12888     12891
     12883     12882     12885     12886     12883     12882     12885     12887
     12883     12882     12885     12888     12884     12882     12885     12886
     12884     12882     12885     12887     12884     12882     12885     12888
     12885     12888     12891     12892     12885     12888     12891     12893
     12885     12888     12891     12894     12886     12885     12888     12889
     12886     12885     12888     12890     12886     12885     12888     12891
     12887     12885     12888     12889     12887     12885     12888     12890
     12887     12885     12888     12891     12888     12891     12894     12895
     12888     12891     12894     12896     12888     12891     12894     12897
     12889     12888     12891     12892     12889     12888     12891     12893
     12889     12888     12891     12894     12890     12888     12891     12892
     12890     12888     12891     12893     12890     12888     12891     12894
     12891     12894     12897     12898     12891     12894     12897     12899
     12892     12891     12894     12895     12892     12891     12894     12896
     12892     12891     12894     12897     12893     12891     12894     12895
     12893     12891     12894     12896     12893     12891     12894     12897
     12894     12897     12899     12900     12894     12897     12899     12901
     12895     12894     12897     12898     12895     12894     12897     12899
     12896     12894     12897     12898     12896     12894     12897     12899
     12897     12899     12901     12902     12897     12899     12901     12903
     12897     12899     12901     12904     12898     12897     12899     12900
     12898     12897     12899     12901     12899     12901     12904     12905
     12899     12901     12904     12906     12899     12901     12904     12907
     12900     12899     12901     12902     12900     12899     12901     12903
     12900     12899     12901     12904     12901     12904     12907     12908
     12901     12904     12907     12909     12901     12904     12907     12910
     12902     12901     12904     12905     12902     12901     12904     12906
     12902     12901     12904     12907     12903     12901     12904     12905
     12903     12901     12904     12906     12903     12901     12904     12907
     12904     12907     12910     12911     12904     12907     12910     12912
     12904     12907     12910     12913     12905     12904     12907     12908
     12905     12904     12907     12909     12905     12904     12907     12910
     12906     12904     12907     12908     12906     12904     12907     12909
     12906     12904     12907     12910     12907     12910     12913     12914
     12907     12910     12913     12915     12907     12910     12913     12916
     12908     12907     12910     12911     12908     12907     12910     12912
     12908     12907     12910     12913     12909     12907     12910     12911
     12909     12907     12910     12912     12909     12907     12910     12913
     12910     12913     12916     12917     12910     12913     12916     12918
     12910     12913     12916     12919     12911     12910     12913     12914
     12911     12910     12913     12915     12911     12910     12913     12916
     12912     12910     12913     12914     12912     12910     12913     12915
     12912     12910     12913     12916     12913     12916     12919     12920
     12913     12916     12919     12921     12913     12916     12919     12922
     12914     12913     12916     12917     12914     12913     12916     12918
     12914     12913     12916     12919     12915     12913     12916     12917
     12915     12913     12916     12918     12915     12913     12916     12919
     12916     12919     12922     12923     12916     12919     12922     12924
     12916     12919     12922     12925     12917     12916     12919     12920
     12917     12916     12919     12921     12917     12916     12919     12922
     12918     12916     12919     12920     12918     12916     12919     12921
     12918     12916     12919     12922     12920     12919     12922     12923
     12920     12919     12922     12924     12920     12919     12922     12925
     12921     12919     12922     12923     12921     12919     12922     12924
     12921     12919     12922     12925     12926     12929     12932     12933
     12926     12929     12932     12934     12926     12929     12932     12935
     12927     12926     12929     12930     12927     12926     12929     12931
     12927     12926     12929     12932     12928     12926     12929     12930
     12928     12926     12929     12931     12928     12926     12929     12932
     12929     12932     12935     12936     12929     12932     12935     12937
     12929     12932     12935     12938     12930     12929     12932     12933
     12930     12929     12932     12934     12930     12929     12932     12935
     12931     12929     12932     12933     12931     12929     12932     12934
     12931     12929     12932     12935     12932     12935     12938     12939
     12932     12935     12938     12940     12932     12935     12938     12941
     12933     12932     12935     12936     12933     12932     12935     12937
     12933     12932     12935     12938     12934     12932     12935     12936
     12934     12932     12935     12937     12934     12932     12935     12938
     12935     12938     12941     12942     12935     12938     12941     12943
     12935     12938     12941     12944     12936     12935     12938     12939
     12936     12935     12938     12940     12936     12935     12938     12941
     12937     12935     12938     12939     12937     12935     12938     12940
     12937     12935     12938     12941     12938     12941     12944     12945
     12938     12941     12944     12946     12939     12938     12941     12942
     12939     12938     12941     12943     12939     12938     12941     12944
     12940     12938     12941     12942     12940     12938     12941     12943
     12940     12938     12941     12944     12941     12944     12946     12947
     12941     12944     12946     12948     12942     12941     12944     12945
     12942     12941     12944     12946     12943     12941     12944     12945
     12943     12941     12944     12946     12944     12946     12948     12949
     12944     12946     12948     12950     12944     12946     12948     12951
     12945     12944     12946     12947     12945     12944     12946     12948
     12946     12948     12951     12952     12946     12948     12951     12953
     12946     12948     12951     12954     12947     12946     12948     12949
     12947     12946     12948     12950     12947     12946     12948     12951
     12948     12951     12954     12955     12948     12951     12954     12956
     12948     12951     12954     12957     12949     12948     12951     12952
     12949     12948     12951     12953     12949     12948     12951     12954
     12950     12948     12951     12952     12950     12948     12951     12953
     12950     12948     12951     12954     12951     12954     12957     12958
     12951     12954     12957     12959     12951     12954     12957     12960
     12952     12951     12954     12955     12952     12951     12954     12956
     12952     12951     12954     12957     12953     12951     12954     12955
     12953     12951     12954     12956     12953     12951     12954     12957
     12954     12957     12960     12961     12954     12957     12960     12962
     12954     12957     12960     12963     12955     12954     12957     12958
     12955     12954     12957     12959     12955     12954     12957     12960
     12956     12954     12957     12958     12956     12954     12957     12959
     12956     12954     12957     12960     12957     12960     12963     12964
     12957     12960     12963     12965     12957     12960     12963     12966
     12958     12957     12960     12961     12958     12957     12960     12962
     12958     12957     12960     12963     12959     12957     12960     12961
     12959     12957     12960     12962     12959     12957     12960     12963
     12960     12963     12966     12967     12960     12963     12966     12968
     12960     12963     12966     12969     12961     12960     12963     12964
     12961     12960     12963     12965     12961     12960     12963     12966
     12962     12960     12963     12964     12962     12960     12963     12965
     12962     12960     12963     12966     12963     12966     12969     12970
     12963     12966     12969     12971     12963     12966     12969     12972
     12964     12963     12966     12967     12964     12963     12966     12968
     12964     12963     12966     12969     12965     12963     12966     12967
     12965     12963     12966     12968     12965     12963     12966     12969
     12967     12966     12969     12970     12967     12966     12969     12971
     12967     12966     12969     12972     12968     12966     12969     12970
     12968     12966     12969     12971     12968     12966     12969     12972
     12973     12974     12989     12990     12973     12974     12989     12991
     12973     12974     12989     12995     12974     12973     12977     12978
     12974     12973     12977     12979     12974     12973     12977     12980
     12974     12973     12981     12982     12974     12973     12981     12983
     12974     12973     12981     12984     12974     12973     12985     12986
     12974     12973     12985     12987     12974     12973     12985     12988
     12974     12989     12995     12992     12975     12974     12973     12977
     12975     12974     12973     12981     12975     12974     12973     12985
     12975     12974     12989     12990     12975     12974     12989     12991
     12975     12974     12989     12995     12976     12974     12973     12977
     12976     12974     12973     12981     12976     12974     12973     12985
     12976     12974     12989     12990     12976     12974     12989     12991
     12976     12974     12989     12995     12977     12973     12974     12989
     12977     12973     12981     12982     12977     12973     12981     12983
     12977     12973     12981     12984     12977     12973     12985     12986
     12977     12973     12985     12987     12977     12973     12985     12988
     12978     12977     12973     12981     12978     12977     12973     12985
     12979     12977     12973     12981     12979     12977     12973     12985
     12980     12977     12973     12981     12980     12977     12973     12985
     12981     12973     12974     12989     12981     12973     12985     12986
     12981     12973     12985     12987     12981     12973     12985     12988
     12982     12981     12973     12985     12983     12981     12973     12985
     12984     12981     12973     12985     12985     12973     12974     12989
     12989     12995     12992     12993     12989     12995     12992     12994
     12989     12995     12992     12996     12990     12989     12995     12992
     12991     12989     12995     12992     12992     12996     12997     12998
     12992     12996     12997     12999     12992     12996     12997     13000
     12993     12992     12996     12997     12994     12992     12996     12997
     12995     12992     12996     12997     12996     12997     13000     13001
     12996     12997     13000     13002     12996     12997     13000     13008
     12997     13000     13002     13003     12997     13000     13008     13009
     12997     13000     13008     13010     12997     13000     13008     13011
     12998     12997     13000     13001     12998     12997     13000     13002
     12998     12997     13000     13008     12999     12997     13000     13001
     12999     12997     13000     13002     12999     12997     13000     13008
     13000     13002     13003     13004     13000     13002     13003     13005
     13000     13008     13011     13012     13001     13000     13002     13003
     13001     13000     13008     13009     13001     13000     13008     13010
     13001     13000     13008     13011     13002     13000     13008     13009
     13002     13000     13008     13010     13002     13000     13008     13011
     13002     13003     13005     13006     13002     13003     13005     13007
     13002     13003     13005     13017     13003     13002     13000     13008
     13003     13005     13017     13018     13003     13005     13017     13019
     13003     13005     13017     13020     13004     13003     13005     13006
     13004     13003     13005     13007     13004     13003     13005     13017
     13005     13017     13020     13021     13005     13017     13020     13022
     13005     13017     13020     13023     13006     13005     13017     13018
     13006     13005     13017     13019     13006     13005     13017     13020
     13007     13005     13017     13018     13007     13005     13017     13019
     13007     13005     13017     13020     13008     13011     13012     13013
     13008     13011     13012     13014     13009     13008     13011     13012
     13010     13008     13011     13012     13011     13012     13014     13015
     13011     13012     13014     13016     13011     13012     13014     13064
     13012     13014     13064     13065     13012     13014     13064     13066
     13012     13014     13064     13067     13013     13012     13014     13015
     13013     13012     13014     13016     13013     13012     13014     13064
     13014     13064     13067     13068     13014     13064     13067     13069
     13014     13064     13067     13070     13015     13014     13064     13065
     13015     13014     13064     13066     13015     13014     13064     13067
     13016     13014     13064     13065     13016     13014     13064     13066
     13016     13014     13064     13067     13017     13020     13023     13024
     13017     13020     13023     13025     13017     13020     13023     13026
     13018     13017     13020     13021     13018     13017     13020     13022
     13018     13017     13020     13023     13019     13017     13020     13021
     13019     13017     13020     13022     13019     13017     13020     13023
     13020     13023     13026     13027     13020     13023     13026     13028
     13020     13023     13026     13029     13021     13020     13023     13024
     13021     13020     13023     13025     13021     13020     13023     13026
     13022     13020     13023     13024     13022     13020     13023     13025
     13022     13020     13023     13026     13023     13026     13029     13030
     13023     13026     13029     13031     13023     13026     13029     13032
     13024     13023     13026     13027     13024     13023     13026     13028
     13024     13023     13026     13029     13025     13023     13026     13027
     13025     13023     13026     13028     13025     13023     13026     13029
     13026     13029     13032     13033     13026     13029     13032     13034
     13026     13029     13032     13035     13027     13026     13029     13030
     13027     13026     13029     13031     13027     13026     13029     13032
     13028     13026     13029     13030     13028     13026     13029     13031
     13028     13026     13029     13032     13029     13032     13035     13036
     13029     13032     13035     13037     13030     13029     13032     13033
     13030     13029     13032     13034     13030     13029     13032     13035
     13031     13029     13032     13033     13031     13029     13032     13034
     13031     13029     13032     13035     13032     13035     13037     13038
     13032     13035     13037     13039     13033     13032     13035     13036
     13033     13032     13035     13037     13034     13032     13035     13036
     13034     13032     13035     13037     13035     13037     13039     13040
     13035     13037     13039     13041     13035     13037     13039     13042
     13036     13035     13037     13038     13036     13035     13037     13039
     13037     13039     13042     13043     13037     13039     13042     13044
     13037     13039     13042     13045     13038     13037     13039     13040
     13038     13037     13039     13041     13038     13037     13039     13042
     13039     13042     13045     13046     13039     13042     13045     13047
     13039     13042     13045     13048     13040     13039     13042     13043
     13040     13039     13042     13044     13040     13039     13042     13045
     13041     13039     13042     13043     13041     13039     13042     13044
     13041     13039     13042     13045     13042     13045     13048     13049
     13042     13045     13048     13050     13042     13045     13048     13051
     13043     13042     13045     13046     13043     13042     13045     13047
     13043     13042     13045     13048     13044     13042     13045     13046
     13044     13042     13045     13047     13044     13042     13045     13048
     13045     13048     13051     13052     13045     13048     13051     13053
     13045     13048     13051     13054     13046     13045     13048     13049
     13046     13045     13048     13050     13046     13045     13048     13051
     13047     13045     13048     13049     13047     13045     13048     13050
     13047     13045     13048     13051     13048     13051     13054     13055
     13048     13051     13054     13056     13048     13051     13054     13057
     13049     13048     13051     13052     13049     13048     13051     13053
     13049     13048     13051     13054     13050     13048     13051     13052
     13050     13048     13051     13053     13050     13048     13051     13054
     13051     13054     13057     13058     13051     13054     13057     13059
     13051     13054     13057     13060     13052     13051     13054     13055
     13052     13051     13054     13056     13052     13051     13054     13057
     13053     13051     13054     13055     13053     13051     13054     13056
     13053     13051     13054     13057     13054     13057     13060     13061
     13054     13057     13060     13062     13054     13057     13060     13063
     13055     13054     13057     13058     13055     13054     13057     13059
     13055     13054     13057     13060     13056     13054     13057     13058
     13056     13054     13057     13059     13056     13054     13057     13060
     13058     13057     13060     13061     13058     13057     13060     13062
     13058     13057     13060     13063     13059     13057     13060     13061
     13059     13057     13060     13062     13059     13057     13060     13063
     13064     13067     13070     13071     13064     13067     13070     13072
     13064     13067     13070     13073     13065     13064     13067     13068
     13065     13064     13067     13069     13065     13064     13067     13070
     13066     13064     13067     13068     13066     13064     13067     13069
     13066     13064     13067     13070     13067     13070     13073     13074
     13067     13070     13073     13075     13067     13070     13073     13076
     13068     13067     13070     13071     13068     13067     13070     13072
     13068     13067     13070     13073     13069     13067     13070     13071
     13069     13067     13070     13072     13069     13067     13070     13073
     13070     13073     13076     13077     13070     13073     13076     13078
     13070     13073     13076     13079     13071     13070     13073     13074
     13071     13070     13073     13075     13071     13070     13073     13076
     13072     13070     13073     13074     13072     13070     13073     13075
     13072     13070     13073     13076     13073     13076     13079     13080
     13073     13076     13079     13081     13073     13076     13079     13082
     13074     13073     13076     13077     13074     13073     13076     13078
     13074     13073     13076     13079     13075     13073     13076     13077
     13075     13073     13076     13078     13075     13073     13076     13079
     13076     13079     13082     13083     13076     13079     13082     13084
     13077     13076     13079     13080     13077     13076     13079     13081
     13077     13076     13079     13082     13078     13076     13079     13080
     13078     13076     13079     13081     13078     13076     13079     13082
     13079     13082     13084     13085     13079     13082     13084     13086
     13080     13079     13082     13083     13080     13079     13082     13084
     13081     13079     13082     13083     13081     13079     13082     13084
     13082     13084     13086     13087     13082     13084     13086     13088
     13082     13084     13086     13089     13083     13082     13084     13085
     13083     13082     13084     13086     13084     13086     13089     13090
     13084     13086     13089     13091     13084     13086     13089     13092
     13085     13084     13086     13087     13085     13084     13086     13088
     13085     13084     13086     13089     13086     13089     13092     13093
     13086     13089     13092     13094     13086     13089     13092     13095
     13087     13086     13089     13090     13087     13086     13089     13091
     13087     13086     13089     13092     13088     13086     13089     13090
     13088     13086     13089     13091     13088     13086     13089     13092
     13089     13092     13095     13096     13089     13092     13095     13097
     13089     13092     13095     13098     13090     13089     13092     13093
     13090     13089     13092     13094     13090     13089     13092     13095
     13091     13089     13092     13093     13091     13089     13092     13094
     13091     13089     13092     13095     13092     13095     13098     13099
     13092     13095     13098     13100     13092     13095     13098     13101
     13093     13092     13095     13096     13093     13092     13095     13097
     13093     13092     13095     13098     13094     13092     13095     13096
     13094     13092     13095     13097     13094     13092     13095     13098
     13095     13098     13101     13102     13095     13098     13101     13103
     13095     13098     13101     13104     13096     13095     13098     13099
     13096     13095     13098     13100     13096     13095     13098     13101
     13097     13095     13098     13099     13097     13095     13098     13100
     13097     13095     13098     13101     13098     13101     13104     13105
     13098     13101     13104     13106     13098     13101     13104     13107
     13099     13098     13101     13102     13099     13098     13101     13103
     13099     13098     13101     13104     13100     13098     13101     13102
     13100     13098     13101     13103     13100     13098     13101     13104
     13101     13104     13107     13108     13101     13104     13107     13109
     13101     13104     13107     13110     13102     13101     13104     13105
     13102     13101     13104     13106     13102     13101     13104     13107
     13103     13101     13104     13105     13103     13101     13104     13106
     13103     13101     13104     13107     13105     13104     13107     13108
     13105     13104     13107     13109     13105     13104     13107     13110
     13106     13104     13107     13108     13106     13104     13107     13109
     13106     13104     13107     13110     13111     13112     13127     13128
     13111     13112     13127     13129     13111     13112     13127     13133
     13112     13111     13115     13116     13112     13111     13115     13117
     13112     13111     13115     13118     13112     13111     13119     13120
     13112     13111     13119     13121     13112     13111     13119     13122
     13112     13111     13123     13124     13112     13111     13123     13125
     13112     13111     13123     13126     13112     13127     13133     13130
     13113     13112     13111     13115     13113     13112     13111     13119
     13113     13112     13111     13123     13113     13112     13127     13128
     13113     13112     13127     13129     13113     13112     13127     13133
     13114     13112     13111     13115     13114     13112     13111     13119
     13114     13112     13111     13123     13114     13112     13127     13128
     13114     13112     13127     13129     13114     13112     13127     13133
     13115     13111     13112     13127     13115     13111     13119     13120
     13115     13111     13119     13121     13115     13111     13119     13122
     13115     13111     13123     13124     13115     13111     13123     13125
     13115     13111     13123     13126     13116     13115     13111     13119
     13116     13115     13111     13123     13117     13115     13111     13119
     13117     13115     13111     13123     13118     13115     13111     13119
     13118     13115     13111     13123     13119     13111     13112     13127
     13119     13111     13123     13124     13119     13111     13123     13125
     13119     13111     13123     13126     13120     13119     13111     13123
     13121     13119     13111     13123     13122     13119     13111     13123
     13123     13111     13112     13127     13127     13133     13130     13131
     13127     13133     13130     13132     13127     13133     13130     13134
     13128     13127     13133     13130     13129     13127     13133     13130
     13130     13134     13135     13136     13130     13134     13135     13137
     13130     13134     13135     13138     13131     13130     13134     13135
     13132     13130     13134     13135     13133     13130     13134     13135
     13134     13135     13138     13139     13134     13135     13138     13140
     13134     13135     13138     13146     13135     13138     13140     13141
     13135     13138     13146     13147     13135     13138     13146     13148
     13135     13138     13146     13149     13136     13135     13138     13139
     13136     13135     13138     13140     13136     13135     13138     13146
     13137     13135     13138     13139     13137     13135     13138     13140
     13137     13135     13138     13146     13138     13140     13141     13142
     13138     13140     13141     13143     13138     13146     13149     13150
     13139     13138     13140     13141     13139     13138     13146     13147
     13139     13138     13146     13148     13139     13138     13146     13149
     13140     13138     13146     13147     13140     13138     13146     13148
     13140     13138     13146     13149     13140     13141     13143     13144
     13140     13141     13143     13145     13140     13141     13143     13155
     13141     13140     13138     13146     13141     13143     13155     13156
     13141     13143     13155     13157     13141     13143     13155     13158
     13142     13141     13143     13144     13142     13141     13143     13145
     13142     13141     13143     13155     13143     13155     13158     13159
     13143     13155     13158     13160     13143     13155     13158     13161
     13144     13143     13155     13156     13144     13143     13155     13157
     13144     13143     13155     13158     13145     13143     13155     13156
     13145     13143     13155     13157     13145     13143     13155     13158
     13146     13149     13150     13151     13146     13149     13150     13152
     13147     13146     13149     13150     13148     13146     13149     13150
     13149     13150     13152     13153     13149     13150     13152     13154
     13149     13150     13152     13202     13150     13152     13202     13203
     13150     13152     13202     13204     13150     13152     13202     13205
     13151     13150     13152     13153     13151     13150     13152     13154
     13151     13150     13152     13202     13152     13202     13205     13206
     13152     13202     13205     13207     13152     13202     13205     13208
     13153     13152     13202     13203     13153     13152     13202     13204
     13153     13152     13202     13205     13154     13152     13202     13203
     13154     13152     13202     13204     13154     13152     13202     13205
     13155     13158     13161     13162     13155     13158     13161     13163
     13155     13158     13161     13164     13156     13155     13158     13159
     13156     13155     13158     13160     13156     13155     13158     13161
     13157     13155     13158     13159     13157     13155     13158     13160
     13157     13155     13158     13161     13158     13161     13164     13165
     13158     13161     13164     13166     13158     13161     13164     13167
     13159     13158     13161     13162     13159     13158     13161     13163
     13159     13158     13161     13164     13160     13158     13161     13162
     13160     13158     13161     13163     13160     13158     13161     13164
     13161     13164     13167     13168     13161     13164     13167     13169
     13161     13164     13167     13170     13162     13161     13164     13165
     13162     13161     13164     13166     13162     13161     13164     13167
     13163     13161     13164     13165     13163     13161     13164     13166
     13163     13161     13164     13167     13164     13167     13170     13171
     13164     13167     13170     13172     13164     13167     13170     13173
     13165     13164     13167     13168     13165     13164     13167     13169
     13165     13164     13167     13170     13166     13164     13167     13168
     13166     13164     13167     13169     13166     13164     13167     13170
     13167     13170     13173     13174     13167     13170     13173     13175
     13168     13167     13170     13171     13168     13167     13170     13172
     13168     13167     13170     13173     13169     13167     13170     13171
     13169     13167     13170     13172     13169     13167     13170     13173
     13170     13173     13175     13176     13170     13173     13175     13177
     13171     13170     13173     13174     13171     13170     13173     13175
     13172     13170     13173     13174     13172     13170     13173     13175
     13173     13175     13177     13178     13173     13175     13177     13179
     13173     13175     13177     13180     13174     13173     13175     13176
     13174     13173     13175     13177     13175     13177     13180     13181
     13175     13177     13180     13182     13175     13177     13180     13183
     13176     13175     13177     13178     13176     13175     13177     13179
     13176     13175     13177     13180     13177     13180     13183     13184
     13177     13180     13183     13185     13177     13180     13183     13186
     13178     13177     13180     13181     13178     13177     13180     13182
     13178     13177     13180     13183     13179     13177     13180     13181
     13179     13177     13180     13182     13179     13177     13180     13183
     13180     13183     13186     13187     13180     13183     13186     13188
     13180     13183     13186     13189     13181     13180     13183     13184
     13181     13180     13183     13185     13181     13180     13183     13186
     13182     13180     13183     13184     13182     13180     13183     13185
     13182     13180     13183     13186     13183     13186     13189     13190
     13183     13186     13189     13191     13183     13186     13189     13192
     13184     13183     13186     13187     13184     13183     13186     13188
     13184     13183     13186     13189     13185     13183     13186     13187
     13185     13183     13186     13188     13185     13183     13186     13189
     13186     13189     13192     13193     13186     13189     13192     13194
     13186     13189     13192     13195     13187     13186     13189     13190
     13187     13186     13189     13191     13187     13186     13189     13192
     13188     13186     13189     13190     13188     13186     13189     13191
     13188     13186     13189     13192     13189     13192     13195     13196
     13189     13192     13195     13197     13189     13192     13195     13198
     13190     13189     13192     13193     13190     13189     13192     13194
     13190     13189     13192     13195     13191     13189     13192     13193
     13191     13189     13192     13194     13191     13189     13192     13195
     13192     13195     13198     13199     13192     13195     13198     13200
     13192     13195     13198     13201     13193     13192     13195     13196
     13193     13192     13195     13197     13193     13192     13195     13198
     13194     13192     13195     13196     13194     13192     13195     13197
     13194     13192     13195     13198     13196     13195     13198     13199
     13196     13195     13198     13200     13196     13195     13198     13201
     13197     13195     13198     13199     13197     13195     13198     13200
     13197     13195     13198     13201     13202     13205     13208     13209
     13202     13205     13208     13210     13202     13205     13208     13211
     13203     13202     13205     13206     13203     13202     13205     13207
     13203     13202     13205     13208     13204     13202     13205     13206
     13204     13202     13205     13207     13204     13202     13205     13208
     13205     13208     13211     13212     13205     13208     13211     13213
     13205     13208     13211     13214     13206     13205     13208     13209
     13206     13205     13208     13210     13206     13205     13208     13211
     13207     13205     13208     13209     13207     13205     13208     13210
     13207     13205     13208     13211     13208     13211     13214     13215
     13208     13211     13214     13216     13208     13211     13214     13217
     13209     13208     13211     13212     13209     13208     13211     13213
     13209     13208     13211     13214     13210     13208     13211     13212
     13210     13208     13211     13213     13210     13208     13211     13214
     13211     13214     13217     13218     13211     13214     13217     13219
     13211     13214     13217     13220     13212     13211     13214     13215
     13212     13211     13214     13216     13212     13211     13214     13217
     13213     13211     13214     13215     13213     13211     13214     13216
     13213     13211     13214     13217     13214     13217     13220     13221
     13214     13217     13220     13222     13215     13214     13217     13218
     13215     13214     13217     13219     13215     13214     13217     13220
     13216     13214     13217     13218     13216     13214     13217     13219
     13216     13214     13217     13220     13217     13220     13222     13223
     13217     13220     13222     13224     13218     13217     13220     13221
     13218     13217     13220     13222     13219     13217     13220     13221
     13219     13217     13220     13222     13220     13222     13224     13225
     13220     13222     13224     13226     13220     13222     13224     13227
     13221     13220     13222     13223     13221     13220     13222     13224
     13222     13224     13227     13228     13222     13224     13227     13229
     13222     13224     13227     13230     13223     13222     13224     13225
     13223     13222     13224     13226     13223     13222     13224     13227
     13224     13227     13230     13231     13224     13227     13230     13232
     13224     13227     13230     13233     13225     13224     13227     13228
     13225     13224     13227     13229     13225     13224     13227     13230
     13226     13224     13227     13228     13226     13224     13227     13229
     13226     13224     13227     13230     13227     13230     13233     13234
     13227     13230     13233     13235     13227     13230     13233     13236
     13228     13227     13230     13231     13228     13227     13230     13232
     13228     13227     13230     13233     13229     13227     13230     13231
     13229     13227     13230     13232     13229     13227     13230     13233
     13230     13233     13236     13237     13230     13233     13236     13238
     13230     13233     13236     13239     13231     13230     13233     13234
     13231     13230     13233     13235     13231     13230     13233     13236
     13232     13230     13233     13234     13232     13230     13233     13235
     13232     13230     13233     13236     13233     13236     13239     13240
     13233     13236     13239     13241     13233     13236     13239     13242
     13234     13233     13236     13237     13234     13233     13236     13238
     13234     13233     13236     13239     13235     13233     13236     13237
     13235     13233     13236     13238     13235     13233     13236     13239
     13236     13239     13242     13243     13236     13239     13242     13244
     13236     13239     13242     13245     13237     13236     13239     13240
     13237     13236     13239     13241     13237     13236     13239     13242
     13238     13236     13239     13240     13238     13236     13239     13241
     13238     13236     13239     13242     13239     13242     13245     13246
     13239     13242     13245     13247     13239     13242     13245     13248
     13240     13239     13242     13243     13240     13239     13242     13244
     13240     13239     13242     13245     13241     13239     13242     13243
     13241     13239     13242     13244     13241     13239     13242     13245
     13243     13242     13245     13246     13243     13242     13245     13247
     13243     13242     13245     13248     13244     13242     13245     13246
     13244     13242     13245     13247     13244     13242     13245     13248
     13249     13250     13265     13266     13249     13250     13265     13267
     13249     13250     13265     13271     13250     13249     13253     13254
     13250     13249     13253     13255     13250     13249     13253     13256
     13250     13249     13257     13258     13250     13249     13257     13259
     13250     13249     13257     13260     13250     13249     13261     13262
     13250     13249     13261     13263     13250     13249     13261     13264
     13250     13265     13271     13268     13251     13250     13249     13253
     13251     13250     13249     13257     13251     13250     13249     13261
     13251     13250     13265     13266     13251     13250     13265     13267
     13251     13250     13265     13271     13252     13250     13249     13253
     13252     13250     13249     13257     13252     13250     13249     13261
     13252     13250     13265     13266     13252     13250     13265     13267
     13252     13250     13265     13271     13253     13249     13250     13265
     13253     13249     13257     13258     13253     13249     13257     13259
     13253     13249     13257     13260     13253     13249     13261     13262
     13253     13249     13261     13263     13253     13249     13261     13264
     13254     13253     13249     13257     13254     13253     13249     13261
     13255     13253     13249     13257     13255     13253     13249     13261
     13256     13253     13249     13257     13256     13253     13249     13261
     13257     13249     13250     13265     13257     13249     13261     13262
     13257     13249     13261     13263     13257     13249     13261     13264
     13258     13257     13249     13261     13259     13257     13249     13261
     13260     13257     13249     13261     13261     13249     13250     13265
     13265     13271     13268     13269     13265     13271     13268     13270
     13265     13271     13268     13272     13266     13265     13271     13268
     13267     13265     13271     13268     13268     13272     13273     13274
     13268     13272     13273     13275     13268     13272     13273     13276
     13269     13268     13272     13273     13270     13268     13272     13273
     13271     13268     13272     13273     13272     13273     13276     13277
     13272     13273     13276     13278     13272     13273     13276     13284
     13273     13276     13278     13279     13273     13276     13284     13285
     13273     13276     13284     13286     13273     13276     13284     13287
     13274     13273     13276     13277     13274     13273     13276     13278
     13274     13273     13276     13284     13275     13273     13276     13277
     13275     13273     13276     13278     13275     13273     13276     13284
     13276     13278     13279     13280     13276     13278     13279     13281
     13276     13284     13287     13288     13277     13276     13278     13279
     13277     13276     13284     13285     13277     13276     13284     13286
     13277     13276     13284     13287     13278     13276     13284     13285
     13278     13276     13284     13286     13278     13276     13284     13287
     13278     13279     13281     13282     13278     13279     13281     13283
     13278     13279     13281     13293     13279     13278     13276     13284
     13279     13281     13293     13294     13279     13281     13293     13295
     13279     13281     13293     13296     13280     13279     13281     13282
     13280     13279     13281     13283     13280     13279     13281     13293
     13281     13293     13296     13297     13281     13293     13296     13298
     13281     13293     13296     13299     13282     13281     13293     13294
     13282     13281     13293     13295     13282     13281     13293     13296
     13283     13281     13293     13294     13283     13281     13293     13295
     13283     13281     13293     13296     13284     13287     13288     13289
     13284     13287     13288     13290     13285     13284     13287     13288
     13286     13284     13287     13288     13287     13288     13290     13291
     13287     13288     13290     13292     13287     13288     13290     13340
     13288     13290     13340     13341     13288     13290     13340     13342
     13288     13290     13340     13343     13289     13288     13290     13291
     13289     13288     13290     13292     13289     13288     13290     13340
     13290     13340     13343     13344     13290     13340     13343     13345
     13290     13340     13343     13346     13291     13290     13340     13341
     13291     13290     13340     13342     13291     13290     13340     13343
     13292     13290     13340     13341     13292     13290     13340     13342
     13292     13290     13340     13343     13293     13296     13299     13300
     13293     13296     13299     13301     13293     13296     13299     13302
     13294     13293     13296     13297     13294     13293     13296     13298
     13294     13293     13296     13299     13295     13293     13296     13297
     13295     13293     13296     13298     13295     13293     13296     13299
     13296     13299     13302     13303     13296     13299     13302     13304
     13296     13299     13302     13305     13297     13296     13299     13300
     13297     13296     13299     13301     13297     13296     13299     13302
     13298     13296     13299     13300     13298     13296     13299     13301
     13298     13296     13299     13302     13299     13302     13305     13306
     13299     13302     13305     13307     13299     13302     13305     13308
     13300     13299     13302     13303     13300     13299     13302     13304
     13300     13299     13302     13305     13301     13299     13302     13303
     13301     13299     13302     13304     13301     13299     13302     13305
     13302     13305     13308     13309     13302     13305     13308     13310
     13302     13305     13308     13311     13303     13302     13305     13306
     13303     13302     13305     13307     13303     13302     13305     13308
     13304     13302     13305     13306     13304     13302     13305     13307
     13304     13302     13305     13308     13305     13308     13311     13312
     13305     13308     13311     13313     13306     13305     13308     13309
     13306     13305     13308     13310     13306     13305     13308     13311
     13307     13305     13308     13309     13307     13305     13308     13310
     13307     13305     13308     13311     13308     13311     13313     13314
     13308     13311     13313     13315     13309     13308     13311     13312
     13309     13308     13311     13313     13310     13308     13311     13312
     13310     13308     13311     13313     13311     13313     13315     13316
     13311     13313     13315     13317     13311     13313     13315     13318
     13312     13311     13313     13314     13312     13311     13313     13315
     13313     13315     13318     13319     13313     13315     13318     13320
     13313     13315     13318     13321     13314     13313     13315     13316
     13314     13313     13315     13317     13314     13313     13315     13318
     13315     13318     13321     13322     13315     13318     13321     13323
     13315     13318     13321     13324     13316     13315     13318     13319
     13316     13315     13318     13320     13316     13315     13318     13321
     13317     13315     13318     13319     13317     13315     13318     13320
     13317     13315     13318     13321     13318     13321     13324     13325
     13318     13321     13324     13326     13318     13321     13324     13327
     13319     13318     13321     13322     13319     13318     13321     13323
     13319     13318     13321     13324     13320     13318     13321     13322
     13320     13318     13321     13323     13320     13318     13321     13324
     13321     13324     13327     13328     13321     13324     13327     13329
     13321     13324     13327     13330     13322     13321     13324     13325
     13322     13321     13324     13326     13322     13321     13324     13327
     13323     13321     13324     13325     13323     13321     13324     13326
     13323     13321     13324     13327     13324     13327     13330     13331
     13324     13327     13330     13332     13324     13327     13330     13333
     13325     13324     13327     13328     13325     13324     13327     13329
     13325     13324     13327     13330     13326     13324     13327     13328
     13326     13324     13327     13329     13326     13324     13327     13330
     13327     13330     13333     13334     13327     13330     13333     13335
     13327     13330     13333     13336     13328     13327     13330     13331
     13328     13327     13330     13332     13328     13327     13330     13333
     13329     13327     13330     13331     13329     13327     13330     13332
     13329     13327     13330     13333     13330     13333     13336     13337
     13330     13333     13336     13338     13330     13333     13336     13339
     13331     13330     13333     13334     13331     13330     13333     13335
     13331     13330     13333     13336     13332     13330     13333     13334
     13332     13330     13333     13335     13332     13330     13333     13336
     13334     13333     13336     13337     13334     13333     13336     13338
     13334     13333     13336     13339     13335     13333     13336     13337
     13335     13333     13336     13338     13335     13333     13336     13339
     13340     13343     13346     13347     13340     13343     13346     13348
     13340     13343     13346     13349     13341     13340     13343     13344
     13341     13340     13343     13345     13341     13340     13343     13346
     13342     13340     13343     13344     13342     13340     13343     13345
     13342     13340     13343     13346     13343     13346     13349     13350
     13343     13346     13349     13351     13343     13346     13349     13352
     13344     13343     13346     13347     13344     13343     13346     13348
     13344     13343     13346     13349     13345     13343     13346     13347
     13345     13343     13346     13348     13345     13343     13346     13349
     13346     13349     13352     13353     13346     13349     13352     13354
     13346     13349     13352     13355     13347     13346     13349     13350
     13347     13346     13349     13351     13347     13346     13349     13352
     13348     13346     13349     13350     13348     13346     13349     13351
     13348     13346     13349     13352     13349     13352     13355     13356
     13349     13352     13355     13357     13349     13352     13355     13358
     13350     13349     13352     13353     13350     13349     13352     13354
     13350     13349     13352     13355     13351     13349     13352     13353
     13351     13349     13352     13354     13351     13349     13352     13355
     13352     13355     13358     13359     13352     13355     13358     13360
     13353     13352     13355     13356     13353     13352     13355     13357
     13353     13352     13355     13358     13354     13352     13355     13356
     13354     13352     13355     13357     13354     13352     13355     13358
     13355     13358     13360     13361     13355     13358     13360     13362
     13356     13355     13358     13359     13356     13355     13358     13360
     13357     13355     13358     13359     13357     13355     13358     13360
     13358     13360     13362     13363     13358     13360     13362     13364
     13358     13360     13362     13365     13359     13358     13360     13361
     13359     13358     13360     13362     13360     13362     13365     13366
     13360     13362     13365     13367     13360     13362     13365     13368
     13361     13360     13362     13363     13361     13360     13362     13364
     13361     13360     13362     13365     13362     13365     13368     13369
     13362     13365     13368     13370     13362     13365     13368     13371
     13363     13362     13365     13366     13363     13362     13365     13367
     13363     13362     13365     13368     13364     13362     13365     13366
     13364     13362     13365     13367     13364     13362     13365     13368
     13365     13368     13371     13372     13365     13368     13371     13373
     13365     13368     13371     13374     13366     13365     13368     13369
     13366     13365     13368     13370     13366     13365     13368     13371
     13367     13365     13368     13369     13367     13365     13368     13370
     13367     13365     13368     13371     13368     13371     13374     13375
     13368     13371     13374     13376     13368     13371     13374     13377
     13369     13368     13371     13372     13369     13368     13371     13373
     13369     13368     13371     13374     13370     13368     13371     13372
     13370     13368     13371     13373     13370     13368     13371     13374
     13371     13374     13377     13378     13371     13374     13377     13379
     13371     13374     13377     13380     13372     13371     13374     13375
     13372     13371     13374     13376     13372     13371     13374     13377
     13373     13371     13374     13375     13373     13371     13374     13376
     13373     13371     13374     13377     13374     13377     13380     13381
     13374     13377     13380     13382     13374     13377     13380     13383
     13375     13374     13377     13378     13375     13374     13377     13379
     13375     13374     13377     13380     13376     13374     13377     13378
     13376     13374     13377     13379     13376     13374     13377     13380
     13377     13380     13383     13384     13377     13380     13383     13385
     13377     13380     13383     13386     13378     13377     13380     13381
     13378     13377     13380     13382     13378     13377     13380     13383
     13379     13377     13380     13381     13379     13377     13380     13382
     13379     13377     13380     13383     13381     13380     13383     13384
     13381     13380     13383     13385     13381     13380     13383     13386
     13382     13380     13383     13384     13382     13380     13383     13385
     13382     13380     13383     13386     13387     13388     13403     13404
     13387     13388     13403     13405     13387     13388     13403     13409
     13388     13387     13391     13392     13388     13387     13391     13393
     13388     13387     13391     13394     13388     13387     13395     13396
     13388     13387     13395     13397     13388     13387     13395     13398
     13388     13387     13399     13400     13388     13387     13399     13401
     13388     13387     13399     13402     13388     13403     13409     13406
     13389     13388     13387     13391     13389     13388     13387     13395
     13389     13388     13387     13399     13389     13388     13403     13404
     13389     13388     13403     13405     13389     13388     13403     13409
     13390     13388     13387     13391     13390     13388     13387     13395
     13390     13388     13387     13399     13390     13388     13403     13404
     13390     13388     13403     13405     13390     13388     13403     13409
     13391     13387     13388     13403     13391     13387     13395     13396
     13391     13387     13395     13397     13391     13387     13395     13398
     13391     13387     13399     13400     13391     13387     13399     13401
     13391     13387     13399     13402     13392     13391     13387     13395
     13392     13391     13387     13399     13393     13391     13387     13395
     13393     13391     13387     13399     13394     13391     13387     13395
     13394     13391     13387     13399     13395     13387     13388     13403
     13395     13387     13399     13400     13395     13387     13399     13401
     13395     13387     13399     13402     13396     13395     13387     13399
     13397     13395     13387     13399     13398     13395     13387     13399
     13399     13387     13388     13403     13403     13409     13406     13407
     13403     13409     13406     13408     13403     13409     13406     13410
     13404     13403     13409     13406     13405     13403     13409     13406
     13406     13410     13411     13412     13406     13410     13411     13413
     13406     13410     13411     13414     13407     13406     13410     13411
     13408     13406     13410     13411     13409     13406     13410     13411
     13410     13411     13414     13415     13410     13411     13414     13416
     13410     13411     13414     13422     13411     13414     13416     13417
     13411     13414     13422     13423     13411     13414     13422     13424
     13411     13414     13422     13425     13412     13411     13414     13415
     13412     13411     13414     13416     13412     13411     13414     13422
     13413     13411     13414     13415     13413     13411     13414     13416
     13413     13411     13414     13422     13414     13416     13417     13418
     13414     13416     13417     13419     13414     13422     13425     13426
     13415     13414     13416     13417     13415     13414     13422     13423
     13415     13414     13422     13424     13415     13414     13422     13425
     13416     13414     13422     13423     13416     13414     13422     13424
     13416     13414     13422     13425     13416     13417     13419     13420
     13416     13417     13419     13421     13416     13417     13419     13431
     13417     13416     13414     13422     13417     13419     13431     13432
     13417     13419     13431     13433     13417     13419     13431     13434
     13418     13417     13419     13420     13418     13417     13419     13421
     13418     13417     13419     13431     13419     13431     13434     13435
     13419     13431     13434     13436     13419     13431     13434     13437
     13420     13419     13431     13432     13420     13419     13431     13433
     13420     13419     13431     13434     13421     13419     13431     13432
     13421     13419     13431     13433     13421     13419     13431     13434
     13422     13425     13426     13427     13422     13425     13426     13428
     13423     13422     13425     13426     13424     13422     13425     13426
     13425     13426     13428     13429     13425     13426     13428     13430
     13425     13426     13428     13478     13426     13428     13478     13479
     13426     13428     13478     13480     13426     13428     13478     13481
     13427     13426     13428     13429     13427     13426     13428     13430
     13427     13426     13428     13478     13428     13478     13481     13482
     13428     13478     13481     13483     13428     13478     13481     13484
     13429     13428     13478     13479     13429     13428     13478     13480
     13429     13428     13478     13481     13430     13428     13478     13479
     13430     13428     13478     13480     13430     13428     13478     13481
     13431     13434     13437     13438     13431     13434     13437     13439
     13431     13434     13437     13440     13432     13431     13434     13435
     13432     13431     13434     13436     13432     13431     13434     13437
     13433     13431     13434     13435     13433     13431     13434     13436
     13433     13431     13434     13437     13434     13437     13440     13441
     13434     13437     13440     13442     13434     13437     13440     13443
     13435     13434     13437     13438     13435     13434     13437     13439
     13435     13434     13437     13440     13436     13434     13437     13438
     13436     13434     13437     13439     13436     13434     13437     13440
     13437     13440     13443     13444     13437     13440     13443     13445
     13437     13440     13443     13446     13438     13437     13440     13441
     13438     13437     13440     13442     13438     13437     13440     13443
     13439     13437     13440     13441     13439     13437     13440     13442
     13439     13437     13440     13443     13440     13443     13446     13447
     13440     13443     13446     13448     13440     13443     13446     13449
     13441     13440     13443     13444     13441     13440     13443     13445
     13441     13440     13443     13446     13442     13440     13443     13444
     13442     13440     13443     13445     13442     13440     13443     13446
     13443     13446     13449     13450     13443     13446     13449     13451
     13444     13443     13446     13447     13444     13443     13446     13448
     13444     13443     13446     13449     13445     13443     13446     13447
     13445     13443     13446     13448     13445     13443     13446     13449
     13446     13449     13451     13452     13446     13449     13451     13453
     13447     13446     13449     13450     13447     13446     13449     13451
     13448     13446     13449     13450     13448     13446     13449     13451
     13449     13451     13453     13454     13449     13451     13453     13455
     13449     13451     13453     13456     13450     13449     13451     13452
     13450     13449     13451     13453     13451     13453     13456     13457
     13451     13453     13456     13458     13451     13453     13456     13459
     13452     13451     13453     13454     13452     13451     13453     13455
     13452     13451     13453     13456     13453     13456     13459     13460
     13453     13456     13459     13461     13453     13456     13459     13462
     13454     13453     13456     13457     13454     13453     13456     13458
     13454     13453     13456     13459     13455     13453     13456     13457
     13455     13453     13456     13458     13455     13453     13456     13459
     13456     13459     13462     13463     13456     13459     13462     13464
     13456     13459     13462     13465     13457     13456     13459     13460
     13457     13456     13459     13461     13457     13456     13459     13462
     13458     13456     13459     13460     13458     13456     13459     13461
     13458     13456     13459     13462     13459     13462     13465     13466
     13459     13462     13465     13467     13459     13462     13465     13468
     13460     13459     13462     13463     13460     13459     13462     13464
     13460     13459     13462     13465     13461     13459     13462     13463
     13461     13459     13462     13464     13461     13459     13462     13465
     13462     13465     13468     13469     13462     13465     13468     13470
     13462     13465     13468     13471     13463     13462     13465     13466
     13463     13462     13465     13467     13463     13462     13465     13468
     13464     13462     13465     13466     13464     13462     13465     13467
     13464     13462     13465     13468     13465     13468     13471     13472
     13465     13468     13471     13473     13465     13468     13471     13474
     13466     13465     13468     13469     13466     13465     13468     13470
     13466     13465     13468     13471     13467     13465     13468     13469
     13467     13465     13468     13470     13467     13465     13468     13471
     13468     13471     13474     13475     13468     13471     13474     13476
     13468     13471     13474     13477     13469     13468     13471     13472
     13469     13468     13471     13473     13469     13468     13471     13474
     13470     13468     13471     13472     13470     13468     13471     13473
     13470     13468     13471     13474     13472     13471     13474     13475
     13472     13471     13474     13476     13472     13471     13474     13477
     13473     13471     13474     13475     13473     13471     13474     13476
     13473     13471     13474     13477     13478     13481     13484     13485
     13478     13481     13484     13486     13478     13481     13484     13487
     13479     13478     13481     13482     13479     13478     13481     13483
     13479     13478     13481     13484     13480     13478     13481     13482
     13480     13478     13481     13483     13480     13478     13481     13484
     13481     13484     13487     13488     13481     13484     13487     13489
     13481     13484     13487     13490     13482     13481     13484     13485
     13482     13481     13484     13486     13482     13481     13484     13487
     13483     13481     13484     13485     13483     13481     13484     13486
     13483     13481     13484     13487     13484     13487     13490     13491
     13484     13487     13490     13492     13484     13487     13490     13493
     13485     13484     13487     13488     13485     13484     13487     13489
     13485     13484     13487     13490     13486     13484     13487     13488
     13486     13484     13487     13489     13486     13484     13487     13490
     13487     13490     13493     13494     13487     13490     13493     13495
     13487     13490     13493     13496     13488     13487     13490     13491
     13488     13487     13490     13492     13488     13487     13490     13493
     13489     13487     13490     13491     13489     13487     13490     13492
     13489     13487     13490     13493     13490     13493     13496     13497
     13490     13493     13496     13498     13491     13490     13493     13494
     13491     13490     13493     13495     13491     13490     13493     13496
     13492     13490     13493     13494     13492     13490     13493     13495
     13492     13490     13493     13496     13493     13496     13498     13499
     13493     13496     13498     13500     13494     13493     13496     13497
     13494     13493     13496     13498     13495     13493     13496     13497
     13495     13493     13496     13498     13496     13498     13500     13501
     13496     13498     13500     13502     13496     13498     13500     13503
     13497     13496     13498     13499     13497     13496     13498     13500
     13498     13500     13503     13504     13498     13500     13503     13505
     13498     13500     13503     13506     13499     13498     13500     13501
     13499     13498     13500     13502     13499     13498     13500     13503
     13500     13503     13506     13507     13500     13503     13506     13508
     13500     13503     13506     13509     13501     13500     13503     13504
     13501     13500     13503     13505     13501     13500     13503     13506
     13502     13500     13503     13504     13502     13500     13503     13505
     13502     13500     13503     13506     13503     13506     13509     13510
     13503     13506     13509     13511     13503     13506     13509     13512
     13504     13503     13506     13507     13504     13503     13506     13508
     13504     13503     13506     13509     13505     13503     13506     13507
     13505     13503     13506     13508     13505     13503     13506     13509
     13506     13509     13512     13513     13506     13509     13512     13514
     13506     13509     13512     13515     13507     13506     13509     13510
     13507     13506     13509     13511     13507     13506     13509     13512
     13508     13506     13509     13510     13508     13506     13509     13511
     13508     13506     13509     13512     13509     13512     13515     13516
     13509     13512     13515     13517     13509     13512     13515     13518
     13510     13509     13512     13513     13510     13509     13512     13514
     13510     13509     13512     13515     13511     13509     13512     13513
     13511     13509     13512     13514     13511     13509     13512     13515
     13512     13515     13518     13519     13512     13515     13518     13520
     13512     13515     13518     13521     13513     13512     13515     13516
     13513     13512     13515     13517     13513     13512     13515     13518
     13514     13512     13515     13516     13514     13512     13515     13517
     13514     13512     13515     13518     13515     13518     13521     13522
     13515     13518     13521     13523     13515     13518     13521     13524
     13516     13515     13518     13519     13516     13515     13518     13520
     13516     13515     13518     13521     13517     13515     13518     13519
     13517     13515     13518     13520     13517     13515     13518     13521
     13519     13518     13521     13522     13519     13518     13521     13523
     13519     13518     13521     13524     13520     13518     13521     13522
     13520     13518     13521     13523     13520     13518     13521     13524
     13525     13526     13541     13542     13525     13526     13541     13543
     13525     13526     13541     13547     13526     13525     13529     13530
     13526     13525     13529     13531     13526     13525     13529     13532
     13526     13525     13533     13534     13526     13525     13533     13535
     13526     13525     13533     13536     13526     13525     13537     13538
     13526     13525     13537     13539     13526     13525     13537     13540
     13526     13541     13547     13544     13527     13526     13525     13529
     13527     13526     13525     13533     13527     13526     13525     13537
     13527     13526     13541     13542     13527     13526     13541     13543
     13527     13526     13541     13547     13528     13526     13525     13529
     13528     13526     13525     13533     13528     13526     13525     13537
     13528     13526     13541     13542     13528     13526     13541     13543
     13528     13526     13541     13547     13529     13525     13526     13541
     13529     13525     13533     13534     13529     13525     13533     13535
     13529     13525     13533     13536     13529     13525     13537     13538
     13529     13525     13537     13539     13529     13525     13537     13540
     13530     13529     13525     13533     13530     13529     13525     13537
     13531     13529     13525     13533     13531     13529     13525     13537
     13532     13529     13525     13533     13532     13529     13525     13537
     13533     13525     13526     13541     13533     13525     13537     13538
     13533     13525     13537     13539     13533     13525     13537     13540
     13534     13533     13525     13537     13535     13533     13525     13537
     13536     13533     13525     13537     13537     13525     13526     13541
     13541     13547     13544     13545     13541     13547     13544     13546
     13541     13547     13544     13548     13542     13541     13547     13544
     13543     13541     13547     13544     13544     13548     13549     13550
     13544     13548     13549     13551     13544     13548     13549     13552
     13545     13544     13548     13549     13546     13544     13548     13549
     13547     13544     13548     13549     13548     13549     13552     13553
     13548     13549     13552     13554     13548     13549     13552     13560
     13549     13552     13554     13555     13549     13552     13560     13561
     13549     13552     13560     13562     13549     13552     13560     13563
     13550     13549     13552     13553     13550     13549     13552     13554
     13550     13549     13552     13560     13551     13549     13552     13553
     13551     13549     13552     13554     13551     13549     13552     13560
     13552     13554     13555     13556     13552     13554     13555     13557
     13552     13560     13563     13564     13553     13552     13554     13555
     13553     13552     13560     13561     13553     13552     13560     13562
     13553     13552     13560     13563     13554     13552     13560     13561
     13554     13552     13560     13562     13554     13552     13560     13563
     13554     13555     13557     13558     13554     13555     13557     13559
     13554     13555     13557     13569     13555     13554     13552     13560
     13555     13557     13569     13570     13555     13557     13569     13571
     13555     13557     13569     13572     13556     13555     13557     13558
     13556     13555     13557     13559     13556     13555     13557     13569
     13557     13569     13572     13573     13557     13569     13572     13574
     13557     13569     13572     13575     13558     13557     13569     13570
     13558     13557     13569     13571     13558     13557     13569     13572
     13559     13557     13569     13570     13559     13557     13569     13571
     13559     13557     13569     13572     13560     13563     13564     13565
     13560     13563     13564     13566     13561     13560     13563     13564
     13562     13560     13563     13564     13563     13564     13566     13567
     13563     13564     13566     13568     13563     13564     13566     13616
     13564     13566     13616     13617     13564     13566     13616     13618
     13564     13566     13616     13619     13565     13564     13566     13567
     13565     13564     13566     13568     13565     13564     13566     13616
     13566     13616     13619     13620     13566     13616     13619     13621
     13566     13616     13619     13622     13567     13566     13616     13617
     13567     13566     13616     13618     13567     13566     13616     13619
     13568     13566     13616     13617     13568     13566     13616     13618
     13568     13566     13616     13619     13569     13572     13575     13576
     13569     13572     13575     13577     13569     13572     13575     13578
     13570     13569     13572     13573     13570     13569     13572     13574
     13570     13569     13572     13575     13571     13569     13572     13573
     13571     13569     13572     13574     13571     13569     13572     13575
     13572     13575     13578     13579     13572     13575     13578     13580
     13572     13575     13578     13581     13573     13572     13575     13576
     13573     13572     13575     13577     13573     13572     13575     13578
     13574     13572     13575     13576     13574     13572     13575     13577
     13574     13572     13575     13578     13575     13578     13581     13582
     13575     13578     13581     13583     13575     13578     13581     13584
     13576     13575     13578     13579     13576     13575     13578     13580
     13576     13575     13578     13581     13577     13575     13578     13579
     13577     13575     13578     13580     13577     13575     13578     13581
     13578     13581     13584     13585     13578     13581     13584     13586
     13578     13581     13584     13587     13579     13578     13581     13582
     13579     13578     13581     13583     13579     13578     13581     13584
     13580     13578     13581     13582     13580     13578     13581     13583
     13580     13578     13581     13584     13581     13584     13587     13588
     13581     13584     13587     13589     13582     13581     13584     13585
     13582     13581     13584     13586     13582     13581     13584     13587
     13583     13581     13584     13585     13583     13581     13584     13586
     13583     13581     13584     13587     13584     13587     13589     13590
     13584     13587     13589     13591     13585     13584     13587     13588
     13585     13584     13587     13589     13586     13584     13587     13588
     13586     13584     13587     13589     13587     13589     13591     13592
     13587     13589     13591     13593     13587     13589     13591     13594
     13588     13587     13589     13590     13588     13587     13589     13591
     13589     13591     13594     13595     13589     13591     13594     13596
     13589     13591     13594     13597     13590     13589     13591     13592
     13590     13589     13591     13593     13590     13589     13591     13594
     13591     13594     13597     13598     13591     13594     13597     13599
     13591     13594     13597     13600     13592     13591     13594     13595
     13592     13591     13594     13596     13592     13591     13594     13597
     13593     13591     13594     13595     13593     13591     13594     13596
     13593     13591     13594     13597     13594     13597     13600     13601
     13594     13597     13600     13602     13594     13597     13600     13603
     13595     13594     13597     13598     13595     13594     13597     13599
     13595     13594     13597     13600     13596     13594     13597     13598
     13596     13594     13597     13599     13596     13594     13597     13600
     13597     13600     13603     13604     13597     13600     13603     13605
     13597     13600     13603     13606     13598     13597     13600     13601
     13598     13597     13600     13602     13598     13597     13600     13603
     13599     13597     13600     13601     13599     13597     13600     13602
     13599     13597     13600     13603     13600     13603     13606     13607
     13600     13603     13606     13608     13600     13603     13606     13609
     13601     13600     13603     13604     13601     13600     13603     13605
     13601     13600     13603     13606     13602     13600     13603     13604
     13602     13600     13603     13605     13602     13600     13603     13606
     13603     13606     13609     13610     13603     13606     13609     13611
     13603     13606     13609     13612     13604     13603     13606     13607
     13604     13603     13606     13608     13604     13603     13606     13609
     13605     13603     13606     13607     13605     13603     13606     13608
     13605     13603     13606     13609     13606     13609     13612     13613
     13606     13609     13612     13614     13606     13609     13612     13615
     13607     13606     13609     13610     13607     13606     13609     13611
     13607     13606     13609     13612     13608     13606     13609     13610
     13608     13606     13609     13611     13608     13606     13609     13612
     13610     13609     13612     13613     13610     13609     13612     13614
     13610     13609     13612     13615     13611     13609     13612     13613
     13611     13609     13612     13614     13611     13609     13612     13615
     13616     13619     13622     13623     13616     13619     13622     13624
     13616     13619     13622     13625     13617     13616     13619     13620
     13617     13616     13619     13621     13617     13616     13619     13622
     13618     13616     13619     13620     13618     13616     13619     13621
     13618     13616     13619     13622     13619     13622     13625     13626
     13619     13622     13625     13627     13619     13622     13625     13628
     13620     13619     13622     13623     13620     13619     13622     13624
     13620     13619     13622     13625     13621     13619     13622     13623
     13621     13619     13622     13624     13621     13619     13622     13625
     13622     13625     13628     13629     13622     13625     13628     13630
     13622     13625     13628     13631     13623     13622     13625     13626
     13623     13622     13625     13627     13623     13622     13625     13628
     13624     13622     13625     13626     13624     13622     13625     13627
     13624     13622     13625     13628     13625     13628     13631     13632
     13625     13628     13631     13633     13625     13628     13631     13634
     13626     13625     13628     13629     13626     13625     13628     13630
     13626     13625     13628     13631     13627     13625     13628     13629
     13627     13625     13628     13630     13627     13625     13628     13631
     13628     13631     13634     13635     13628     13631     13634     13636
     13629     13628     13631     13632     13629     13628     13631     13633
     13629     13628     13631     13634     13630     13628     13631     13632
     13630     13628     13631     13633     13630     13628     13631     13634
     13631     13634     13636     13637     13631     13634     13636     13638
     13632     13631     13634     13635     13632     13631     13634     13636
     13633     13631     13634     13635     13633     13631     13634     13636
     13634     13636     13638     13639     13634     13636     13638     13640
     13634     13636     13638     13641     13635     13634     13636     13637
     13635     13634     13636     13638     13636     13638     13641     13642
     13636     13638     13641     13643     13636     13638     13641     13644
     13637     13636     13638     13639     13637     13636     13638     13640
     13637     13636     13638     13641     13638     13641     13644     13645
     13638     13641     13644     13646     13638     13641     13644     13647
     13639     13638     13641     13642     13639     13638     13641     13643
     13639     13638     13641     13644     13640     13638     13641     13642
     13640     13638     13641     13643     13640     13638     13641     13644
     13641     13644     13647     13648     13641     13644     13647     13649
     13641     13644     13647     13650     13642     13641     13644     13645
     13642     13641     13644     13646     13642     13641     13644     13647
     13643     13641     13644     13645     13643     13641     13644     13646
     13643     13641     13644     13647     13644     13647     13650     13651
     13644     13647     13650     13652     13644     13647     13650     13653
     13645     13644     13647     13648     13645     13644     13647     13649
     13645     13644     13647     13650     13646     13644     13647     13648
     13646     13644     13647     13649     13646     13644     13647     13650
     13647     13650     13653     13654     13647     13650     13653     13655
     13647     13650     13653     13656     13648     13647     13650     13651
     13648     13647     13650     13652     13648     13647     13650     13653
     13649     13647     13650     13651     13649     13647     13650     13652
     13649     13647     13650     13653     13650     13653     13656     13657
     13650     13653     13656     13658     13650     13653     13656     13659
     13651     13650     13653     13654     13651     13650     13653     13655
     13651     13650     13653     13656     13652     13650     13653     13654
     13652     13650     13653     13655     13652     13650     13653     13656
     13653     13656     13659     13660     13653     13656     13659     13661
     13653     13656     13659     13662     13654     13653     13656     13657
     13654     13653     13656     13658     13654     13653     13656     13659
     13655     13653     13656     13657     13655     13653     13656     13658
     13655     13653     13656     13659     13657     13656     13659     13660
     13657     13656     13659     13661     13657     13656     13659     13662
     13658     13656     13659     13660     13658     13656     13659     13661
     13658     13656     13659     13662     13663     13664     13679     13680
     13663     13664     13679     13681     13663     13664     13679     13685
     13664     13663     13667     13668     13664     13663     13667     13669
     13664     13663     13667     13670     13664     13663     13671     13672
     13664     13663     13671     13673     13664     13663     13671     13674
     13664     13663     13675     13676     13664     13663     13675     13677
     13664     13663     13675     13678     13664     13679     13685     13682
     13665     13664     13663     13667     13665     13664     13663     13671
     13665     13664     13663     13675     13665     13664     13679     13680
     13665     13664     13679     13681     13665     13664     13679     13685
     13666     13664     13663     13667     13666     13664     13663     13671
     13666     13664     13663     13675     13666     13664     13679     13680
     13666     13664     13679     13681     13666     13664     13679     13685
     13667     13663     13664     13679     13667     13663     13671     13672
     13667     13663     13671     13673     13667     13663     13671     13674
     13667     13663     13675     13676     13667     13663     13675     13677
     13667     13663     13675     13678     13668     13667     13663     13671
     13668     13667     13663     13675     13669     13667     13663     13671
     13669     13667     13663     13675     13670     13667     13663     13671
     13670     13667     13663     13675     13671     13663     13664     13679
     13671     13663     13675     13676     13671     13663     13675     13677
     13671     13663     13675     13678     13672     13671     13663     13675
     13673     13671     13663     13675     13674     13671     13663     13675
     13675     13663     13664     13679     13679     13685     13682     13683
     13679     13685     13682     13684     13679     13685     13682     13686
     13680     13679     13685     13682     13681     13679     13685     13682
     13682     13686     13687     13688     13682     13686     13687     13689
     13682     13686     13687     13690     13683     13682     13686     13687
     13684     13682     13686     13687     13685     13682     13686     13687
     13686     13687     13690     13691     13686     13687     13690     13692
     13686     13687     13690     13698     13687     13690     13692     13693
     13687     13690     13698     13699     13687     13690     13698     13700
     13687     13690     13698     13701     13688     13687     13690     13691
     13688     13687     13690     13692     13688     13687     13690     13698
     13689     13687     13690     13691     13689     13687     13690     13692
     13689     13687     13690     13698     13690     13692     13693     13694
     13690     13692     13693     13695     13690     13698     13701     13702
     13691     13690     13692     13693     13691     13690     13698     13699
     13691     13690     13698     13700     13691     13690     13698     13701
     13692     13690     13698     13699     13692     13690     13698     13700
     13692     13690     13698     13701     13692     13693     13695     13696
     13692     13693     13695     13697     13692     13693     13695     13707
     13693     13692     13690     13698     13693     13695     13707     13708
     13693     13695     13707     13709     13693     13695     13707     13710
     13694     13693     13695     13696     13694     13693     13695     13697
     13694     13693     13695     13707     13695     13707     13710     13711
     13695     13707     13710     13712     13695     13707     13710     13713
     13696     13695     13707     13708     13696     13695     13707     13709
     13696     13695     13707     13710     13697     13695     13707     13708
     13697     13695     13707     13709     13697     13695     13707     13710
     13698     13701     13702     13703     13698     13701     13702     13704
     13699     13698     13701     13702     13700     13698     13701     13702
     13701     13702     13704     13705     13701     13702     13704     13706
     13701     13702     13704     13754     13702     13704     13754     13755
     13702     13704     13754     13756     13702     13704     13754     13757
     13703     13702     13704     13705     13703     13702     13704     13706
     13703     13702     13704     13754     13704     13754     13757     13758
     13704     13754     13757     13759     13704     13754     13757     13760
     13705     13704     13754     13755     13705     13704     13754     13756
     13705     13704     13754     13757     13706     13704     13754     13755
     13706     13704     13754     13756     13706     13704     13754     13757
     13707     13710     13713     13714     13707     13710     13713     13715
     13707     13710     13713     13716     13708     13707     13710     13711
     13708     13707     13710     13712     13708     13707     13710     13713
     13709     13707     13710     13711     13709     13707     13710     13712
     13709     13707     13710     13713     13710     13713     13716     13717
     13710     13713     13716     13718     13710     13713     13716     13719
     13711     13710     13713     13714     13711     13710     13713     13715
     13711     13710     13713     13716     13712     13710     13713     13714
     13712     13710     13713     13715     13712     13710     13713     13716
     13713     13716     13719     13720     13713     13716     13719     13721
     13713     13716     13719     13722     13714     13713     13716     13717
     13714     13713     13716     13718     13714     13713     13716     13719
     13715     13713     13716     13717     13715     13713     13716     13718
     13715     13713     13716     13719     13716     13719     13722     13723
     13716     13719     13722     13724     13716     13719     13722     13725
     13717     13716     13719     13720     13717     13716     13719     13721
     13717     13716     13719     13722     13718     13716     13719     13720
     13718     13716     13719     13721     13718     13716     13719     13722
     13719     13722     13725     13726     13719     13722     13725     13727
     13720     13719     13722     13723     13720     13719     13722     13724
     13720     13719     13722     13725     13721     13719     13722     13723
     13721     13719     13722     13724     13721     13719     13722     13725
     13722     13725     13727     13728     13722     13725     13727     13729
     13723     13722     13725     13726     13723     13722     13725     13727
     13724     13722     13725     13726     13724     13722     13725     13727
     13725     13727     13729     13730     13725     13727     13729     13731
     13725     13727     13729     13732     13726     13725     13727     13728
     13726     13725     13727     13729     13727     13729     13732     13733
     13727     13729     13732     13734     13727     13729     13732     13735
     13728     13727     13729     13730     13728     13727     13729     13731
     13728     13727     13729     13732     13729     13732     13735     13736
     13729     13732     13735     13737     13729     13732     13735     13738
     13730     13729     13732     13733     13730     13729     13732     13734
     13730     13729     13732     13735     13731     13729     13732     13733
     13731     13729     13732     13734     13731     13729     13732     13735
     13732     13735     13738     13739     13732     13735     13738     13740
     13732     13735     13738     13741     13733     13732     13735     13736
     13733     13732     13735     13737     13733     13732     13735     13738
     13734     13732     13735     13736     13734     13732     13735     13737
     13734     13732     13735     13738     13735     13738     13741     13742
     13735     13738     13741     13743     13735     13738     13741     13744
     13736     13735     13738     13739     13736     13735     13738     13740
     13736     13735     13738     13741     13737     13735     13738     13739
     13737     13735     13738     13740     13737     13735     13738     13741
     13738     13741     13744     13745     13738     13741     13744     13746
     13738     13741     13744     13747     13739     13738     13741     13742
     13739     13738     13741     13743     13739     13738     13741     13744
     13740     13738     13741     13742     13740     13738     13741     13743
     13740     13738     13741     13744     13741     13744     13747     13748
     13741     13744     13747     13749     13741     13744     13747     13750
     13742     13741     13744     13745     13742     13741     13744     13746
     13742     13741     13744     13747     13743     13741     13744     13745
     13743     13741     13744     13746     13743     13741     13744     13747
     13744     13747     13750     13751     13744     13747     13750     13752
     13744     13747     13750     13753     13745     13744     13747     13748
     13745     13744     13747     13749     13745     13744     13747     13750
     13746     13744     13747     13748     13746     13744     13747     13749
     13746     13744     13747     13750     13748     13747     13750     13751
     13748     13747     13750     13752     13748     13747     13750     13753
     13749     13747     13750     13751     13749     13747     13750     13752
     13749     13747     13750     13753     13754     13757     13760     13761
     13754     13757     13760     13762     13754     13757     13760     13763
     13755     13754     13757     13758     13755     13754     13757     13759
     13755     13754     13757     13760     13756     13754     13757     13758
     13756     13754     13757     13759     13756     13754     13757     13760
     13757     13760     13763     13764     13757     13760     13763     13765
     13757     13760     13763     13766     13758     13757     13760     13761
     13758     13757     13760     13762     13758     13757     13760     13763
     13759     13757     13760     13761     13759     13757     13760     13762
     13759     13757     13760     13763     13760     13763     13766     13767
     13760     13763     13766     13768     13760     13763     13766     13769
     13761     13760     13763     13764     13761     13760     13763     13765
     13761     13760     13763     13766     13762     13760     13763     13764
     13762     13760     13763     13765     13762     13760     13763     13766
     13763     13766     13769     13770     13763     13766     13769     13771
     13763     13766     13769     13772     13764     13763     13766     13767
     13764     13763     13766     13768     13764     13763     13766     13769
     13765     13763     13766     13767     13765     13763     13766     13768
     13765     13763     13766     13769     13766     13769     13772     13773
     13766     13769     13772     13774     13767     13766     13769     13770
     13767     13766     13769     13771     13767     13766     13769     13772
     13768     13766     13769     13770     13768     13766     13769     13771
     13768     13766     13769     13772     13769     13772     13774     13775
     13769     13772     13774     13776     13770     13769     13772     13773
     13770     13769     13772     13774     13771     13769     13772     13773
     13771     13769     13772     13774     13772     13774     13776     13777
     13772     13774     13776     13778     13772     13774     13776     13779
     13773     13772     13774     13775     13773     13772     13774     13776
     13774     13776     13779     13780     13774     13776     13779     13781
     13774     13776     13779     13782     13775     13774     13776     13777
     13775     13774     13776     13778     13775     13774     13776     13779
     13776     13779     13782     13783     13776     13779     13782     13784
     13776     13779     13782     13785     13777     13776     13779     13780
     13777     13776     13779     13781     13777     13776     13779     13782
     13778     13776     13779     13780     13778     13776     13779     13781
     13778     13776     13779     13782     13779     13782     13785     13786
     13779     13782     13785     13787     13779     13782     13785     13788
     13780     13779     13782     13783     13780     13779     13782     13784
     13780     13779     13782     13785     13781     13779     13782     13783
     13781     13779     13782     13784     13781     13779     13782     13785
     13782     13785     13788     13789     13782     13785     13788     13790
     13782     13785     13788     13791     13783     13782     13785     13786
     13783     13782     13785     13787     13783     13782     13785     13788
     13784     13782     13785     13786     13784     13782     13785     13787
     13784     13782     13785     13788     13785     13788     13791     13792
     13785     13788     13791     13793     13785     13788     13791     13794
     13786     13785     13788     13789     13786     13785     13788     13790
     13786     13785     13788     13791     13787     13785     13788     13789
     13787     13785     13788     13790     13787     13785     13788     13791
     13788     13791     13794     13795     13788     13791     13794     13796
     13788     13791     13794     13797     13789     13788     13791     13792
     13789     13788     13791     13793     13789     13788     13791     13794
     13790     13788     13791     13792     13790     13788     13791     13793
     13790     13788     13791     13794     13791     13794     13797     13798
     13791     13794     13797     13799     13791     13794     13797     13800
     13792     13791     13794     13795     13792     13791     13794     13796
     13792     13791     13794     13797     13793     13791     13794     13795
     13793     13791     13794     13796     13793     13791     13794     13797
     13795     13794     13797     13798     13795     13794     13797     13799
     13795     13794     13797     13800     13796     13794     13797     13798
     13796     13794     13797     13799     13796     13794     13797     13800

       200 !NIMPHI: impropers
        31        30        33        32        40        39        42        41
       169       168       171       170       178       177       180       179
       307       306       309       308       316       315       318       317
       445       444       447       446       454       453       456       455
       583       582       585       584       592       591       594       593
       721       720       723       722       730       729       732       731
       859       858       861       860       868       867       870       869
       997       996       999       998      1006      1005      1008      1007
      1135      1134      1137      1136      1144      1143      1146      1145
      1273      1272      1275      1274      1282      1281      1284      1283
      1411      1410      1413      1412      1420      1419      1422      1421
      1549      1548      1551      1550      1558      1557      1560      1559
      1687      1686      1689      1688      1696      1695      1698      1697
      1825      1824      1827      1826      1834      1833      1836      1835
      1963      1962      1965      1964      1972      1971      1974      1973
      2101      2100      2103      2102      2110      2109      2112      2111
      2239      2238      2241      2240      2248      2247      2250      2249
      2377      2376      2379      2378      2386      2385      2388      2387
      2515      2514      2517      2516      2524      2523      2526      2525
      2653      2652      2655      2654      2662      2661      2664      2663
      2791      2790      2793      2792      2800      2799      2802      2801
      2929      2928      2931      2930      2938      2937      2940      2939
      3067      3066      3069      3068      3076      3075      3078      3077
      3205      3204      3207      3206      3214      3213      3216      3215
      3343      3342      3345      3344      3352      3351      3354      3353
      3481      3480      3483      3482      3490      3489      3492      3491
      3619      3618      3621      3620      3628      3627      3630      3629
      3757      3756      3759      3758      3766      3765      3768      3767
      3895      3894      3897      3896      3904      3903      3906      3905
      4033      4032      4035      4034      4042      4041      4044      4043
      4171      4170      4173      4172      4180      4179      4182      4181
      4309      4308      4311      4310      4318      4317      4320      4319
      4447      4446      4449      4448      4456      4455      4458      4457
      4585      4584      4587      4586      4594      4593      4596      4595
      4723      4722      4725      4724      4732      4731      4734      4733
      4861      4860      4863      4862      4870      4869      4872      4871
      4999      4998      5001      5000      5008      5007      5010      5009
      5137      5136      5139      5138      5146      5145      5148      5147
      5275      5274      5277      5276      5284      5283      5286      5285
      5413      5412      5415      5414      5422      5421      5424      5423
      5551      5550      5553      5552      5560      5559      5562      5561
      5689      5688      5691      5690      5698      5697      5700      5699
      5827      5826      5829      5828      5836      5835      5838      5837
      5965      5964      5967      5966      5974      5973      5976      5975
      6103      6102      6105      6104      6112      6111      6114      6113
      6241      6240      6243      6242      6250      6249      6252      6251
      6379      6378      6381      6380      6388      6387      6390      6389
      6517      6516      6519      6518      6526      6525      6528      6527
      6655      6654      6657      6656      6664      6663      6666      6665
      6793      6792      6795      6794      6802      6801      6804      6803
      6931      6930      6933      6932      6940      6939      6942      6941
      7069      7068      7071      7070      7078      7077      7080      7079
      7207      7206      7209      7208      7216      7215      7218      7217
      7345      7344      7347      7346      7354      7353      7356      7355
      7483      7482      7485      7484      7492      7491      7494      7493
      7621      7620      7623      7622      7630      7629      7632      7631
      7759      7758      7761      7760      7768      7767      7770      7769
      7897      7896      7899      7898      7906      7905      7908      7907
      8035      8034      8037      8036      8044      8043      8046      8045
      8173      8172      8175      8174      8182      8181      8184      8183
      8311      8310      8313      8312      8320      8319      8322      8321
      8449      8448      8451      8450      8458      8457      8460      8459
      8587      8586      8589      8588      8596      8595      8598      8597
      8725      8724      8727      8726      8734      8733      8736      8735
      8863      8862      8865      8864      8872      8871      8874      8873
      9001      9000      9003      9002      9010      9009      9012      9011
      9139      9138      9141      9140      9148      9147      9150      9149
      9277      9276      9279      9278      9286      9285      9288      9287
      9415      9414      9417      9416      9424      9423      9426      9425
      9553      9552      9555      9554      9562      9561      9564      9563
      9691      9690      9693      9692      9700      9699      9702      9701
      9829      9828      9831      9830      9838      9837      9840      9839
      9967      9966      9969      9968      9976      9975      9978      9977
     10105     10104     10107     10106     10114     10113     10116     10115
     10243     10242     10245     10244     10252     10251     10254     10253
     10381     10380     10383     10382     10390     10389     10392     10391
     10519     10518     10521     10520     10528     10527     10530     10529
     10657     10656     10659     10658     10666     10665     10668     10667
     10795     10794     10797     10796     10804     10803     10806     10805
     10933     10932     10935     10934     10942     10941     10944     10943
     11071     11070     11073     11072     11080     11079     11082     11081
     11209     11208     11211     11210     11218     11217     11220     11219
     11347     11346     11349     11348     11356     11355     11358     11357
     11485     11484     11487     11486     11494     11493     11496     11495
     11623     11622     11625     11624     11632     11631     11634     11633
     11761     11760     11763     11762     11770     11769     11772     11771
     11899     11898     11901     11900     11908     11907     11910     11909
     12037     12036     12039     12038     12046     12045     12048     12047
     12175     12174     12177     12176     12184     12183     12186     12185
     12313     12312     12315     12314     12322     12321     12324     12323
     12451     12450     12453     12452     12460     12459     12462     12461
     12589     12588     12591     12590     12598     12597     12600     12599
     12727     12726     12729     12728     12736     12735     12738     12737
     12865     12864     12867     12866     12874     12873     12876     12875
     13003     13002     13005     13004     13012     13011     13014     13013
     13141     13140     13143     13142     13150     13149     13152     13151
     13279     13278     13281     13280     13288     13287     13290     13289
     13417     13416     13419     13418     13426     13425     13428     13427
     13555     13554     13557     13556     13564     13563     13566     13565
     13693     13692     13695     13694     13702     13701     13704     13703

     10000 !NDON: donors
     13801     13802     13801     13803     13804     13805     13804     13806
     13807     13808     13807     13809     13810     13811     13810     13812
     13813     13814     13813     13815     13816     13817     13816     13818
     13819     13820     13819     13821     13822     13823     13822     13824
     13825     13826     13825     13827     13828     13829     13828     13830
     13831     13832     13831     13833     13834     13835     13834     13836
     13837     13838     13837     13839     13840     13841     13840     13842
     13843     13844     13843     13845     13846     13847     13846     13848
     13849     13850     13849     13851     13852     13853     13852     13854
     13855     13856     13855     13857     13858     13859     13858     13860
     13861     13862     13861     13863     13864     13865     13864     13866
     13867     13868     13867     13869     13870     13871     13870     13872
     13873     13874     13873     13875     13876     13877     13876     13878
     13879     13880     13879     13881     13882     13883     13882     13884
     13885     13886     13885     13887     13888     13889     13888     13890
     13891     13892     13891     13893     13894     13895     13894     13896
     13897     13898     13897     13899     13900     13901     13900     13902
     13903     13904     13903     13905     13906     13907     13906     13908
     13909     13910     13909     13911     13912     13913     13912     13914
     13915     13916     13915     13917     13918     13919     13918     13920
     13921     13922     13921     13923     13924     13925     13924     13926
     13927     13928     13927     13929     13930     13931     13930     13932
     13933     13934     13933     13935     13936     13937     13936     13938
     13939     13940     13939     13941     13942     13943     13942     13944
     13945     13946     13945     13947     13948     13949     13948     13950
     13951     13952     13951     13953     13954     13955     13954     13956
     13957     13958     13957     13959     13960     13961     13960     13962
     13963     13964     13963     13965     13966     13967     13966     13968
     13969     13970     13969     13971     13972     13973     13972     13974
     13975     13976     13975     13977     13978     13979     13978     13980
     13981     13982     13981     13983     13984     13985     13984     13986
     13987     13988     13987     13989     13990     13991     13990     13992
     13993     13994     13993     13995     13996     13997     13996     13998
     13999     14000     13999     14001     14002     14003     14002     14004
     14005     14006     14005     14007     14008     14009     14008     14010
     14011     14012     14011     14013     14014     14015     14014     14016
     14017     14018     14017     14019     14020     14021     14020     14022
     14023     14024     14023     14025     14026     14027     14026     14028
     14029     14030     14029     14031     14032     14033     14032     14034
     14035     14036     14035     14037     14038     14039     14038     14040
     14041     14042     14041     14043     14044     14045     14044     14046
     14047     14048     14047     14049     14050     14051     14050     14052
     14053     14054     14053     14055     14056     14057     14056     14058
     14059     14060     14059     14061     14062     14063     14062     14064
     14065     14066     14065     14067     14068     14069     14068     14070
     14071     14072     14071     14073     14074     14075     14074     14076
     14077     14078     14077     14079     14080     14081     14080     14082
     14083     14084     14083     14085     14086     14087     14086     14088
     14089     14090     14089     14091     14092     14093     14092     14094
     14095     14096     14095     14097     14098     14099     14098     14100
     14101     14102     14101     14103     14104     14105     14104     14106
     14107     14108     14107     14109     14110     14111     14110     14112
     14113     14114     14113     14115     14116     14117     14116     14118
     14119     14120     14119     14121     14122     14123     14122     14124
     14125     14126     14125     14127     14128     14129     14128     14130
     14131     14132     14131     14133     14134     14135     14134     14136
     14137     14138     14137     14139     14140     14141     14140     14142
     14143     14144     14143     14145     14146     14147     14146     14148
     14149     14150     14149     14151     14152     14153     14152     14154
     14155     14156     14155     14157     14158     14159     14158     14160
     14161     14162     14161     14163     14164     14165     14164     14166
     14167     14168     14167     14169     14170     14171     14170     14172
     14173     14174     14173     14175     14176     14177     14176     14178
     14179     14180     14179     14181     14182     14183     14182     14184
     14185     14186     14185     14187     14188     14189     14188     14190
     14191     14192     14191     14193     14194     14195     14194     14196
     14197     14198     14197     14199     14200     14201     14200     14202
     14203     14204     14203     14205     14206     14207     14206     14208
     14209     14210     14209     14211     14212     14213     14212     14214
     14215     14216     14215     14217     14218     14219     14218     14220
     14221     14222     14221     14223     14224     14225     14224     14226
     14227     14228     14227     14229     14230     14231     14230     14232
     14233     14234     14233     14235     14236     14237     14236     14238
     14239     14240     14239     14241     14242     14243     14242     14244
     14245     14246     14245     14247     14248     14249     14248     14250
     14251     14252     14251     14253     14254     14255     14254     14256
     14257     14258     14257     14259     14260     14261     14260     14262
     14263     14264     14263     14265     14266     14267     14266     14268
     14269     14270     14269     14271     14272     14273     14272     14274
     14275     14276     14275     14277     14278     14279     14278     14280
     14281     14282     14281     14283     14284     14285     14284     14286
     14287     14288     14287     14289     14290     14291     14290     14292
     14293     14294     14293     14295     14296     14297     14296     14298
     14299     14300     14299     14301     14302     14303     14302     14304
     14305     14306     14305     14307     14308     14309     14308     14310
     14311     14312     14311     14313     14314     14315     14314     14316
     14317     14318     14317     14319     14320     14321     14320     14322
     14323     14324     14323     14325     14326     14327     14326     14328
     14329     14330     14329     14331     14332     14333     14332     14334
     14335     14336     14335     14337     14338     14339     14338     14340
     14341     14342     14341     14343     14344     14345     14344     14346
     14347     14348     14347     14349     14350     14351     14350     14352
     14353     14354     14353     14355     14356     14357     14356     14358
     14359     14360     14359     14361     14362     14363     14362     14364
     14365     14366     14365     14367     14368     14369     14368     14370
     14371     14372     14371     14373     14374     14375     14374     14376
     14377     14378     14377     14379     14380     14381     14380     14382
     14383     14384     14383     14385     14386     14387     14386     14388
     14389     14390     14389     14391     14392     14393     14392     14394
     14395     14396     14395     14397     14398     14399     14398     14400
     14401     14402     14401     14403     14404     14405     14404     14406
     14407     14408     14407     14409     14410     14411     14410     14412
     14413     14414     14413     14415     14416     14417     14416     14418
     14419     14420     14419     14421     14422     14423     14422     14424
     14425     14426     14425     14427     14428     14429     14428     14430
     14431     14432     14431     14433     14434     14435     14434     14436
     14437     14438     14437     14439     14440     14441     14440     14442
     14443     14444     14443     14445     14446     14447     14446     14448
     14449     14450     14449     14451     14452     14453     14452     14454
     14455     14456     14455     14457     14458     14459     14458     14460
     14461     14462     14461     14463     14464     14465     14464     14466
     14467     14468     14467     14469     14470     14471     14470     14472
     14473     14474     14473     14475     14476     14477     14476     14478
     14479     14480     14479     14481     14482     14483     14482     14484
     14485     14486     14485     14487     14488     14489     14488     14490
     14491     14492     14491     14493     14494     14495     14494     14496
     14497     14498     14497     14499     14500     14501     14500     14502
     14503     14504     14503     14505     14506     14507     14506     14508
     14509     14510     14509     14511     14512     14513     14512     14514
     14515     14516     14515     14517     14518     14519     14518     14520
     14521     14522     14521     14523     14524     14525     14524     14526
     14527     14528     14527     14529     14530     14531     14530     14532
     14533     14534     14533     14535     14536     14537     14536     14538
     14539     14540     14539     14541     14542     14543     14542     14544
     14545     14546     14545     14547     14548     14549     14548     14550
     14551     14552     14551     14553     14554     14555     14554     14556
     14557     14558     14557     14559     14560     14561     14560     14562
     14563     14564     14563     14565     14566     14567     14566     14568
     14569     14570     14569     14571     14572     14573     14572     14574
     14575     14576     14575     14577     14578     14579     14578     14580
     14581     14582     14581     14583     14584     14585     14584     14586
     14587     14588     14587     14589     14590     14591     14590     14592
     14593     14594     14593     14595     14596     14597     14596     14598
     14599     14600     14599     14601     14602     14603     14602     14604
     14605     14606     14605     14607     14608     14609     14608     14610
     14611     14612     14611     14613     14614     14615     14614     14616
     14617     14618     14617     14619     14620     14621     14620     14622
     14623     14624     14623     14625     14626     14627     14626     14628
     14629     14630     14629     14631     14632     14633     14632     14634
     14635     14636     14635     14637     14638     14639     14638     14640
     14641     14642     14641     14643     14644     14645     14644     14646
     14647     14648     14647     14649     14650     14651     14650     14652
     14653     14654     14653     14655     14656     14657     14656     14658
     14659     14660     14659     14661     14662     14663     14662     14664
     14665     14666     14665     14667     14668     14669     14668     14670
     14671     14672     14671     14673     14674     14675     14674     14676
     14677     14678     14677     14679     14680     14681     14680     14682
     14683     14684     14683     14685     14686     14687     14686     14688
     14689     14690     14689     14691     14692     14693     14692     14694
     14695     14696     14695     14697     14698     14699     14698     14700
     14701     14702     14701     14703     14704     14705     14704     14706
     14707     14708     14707     14709     14710     14711     14710     14712
     14713     14714     14713     14715     14716     14717     14716     14718
     14719     14720     14719     14721     14722     14723     14722     14724
     14725     14726     14725     14727     14728     14729     14728     14730
     14731     14732     14731     14733     14734     14735     14734     14736
     14737     14738     14737     14739     14740     14741     14740     14742
     14743     14744     14743     14745     14746     14747     14746     14748
     14749     14750     14749     14751     14752     14753     14752     14754
     14755     14756     14755     14757     14758     14759     14758     14760
     14761     14762     14761     14763     14764     14765     14764     14766
     14767     14768     14767     14769     14770     14771     14770     14772
     14773     14774     14773     14775     14776     14777     14776     14778
     14779     14780     14779     14781     14782     14783     14782     14784
     14785     14786     14785     14787     14788     14789     14788     14790
     14791     14792     14791     14793     14794     14795     14794     14796
     14797     14798     14797     14799     14800     14801     14800     14802
     14803     14804     14803     14805     14806     14807     14806     14808
     14809     14810     14809     14811     14812     14813     14812     14814
     14815     14816     14815     14817     14818     14819     14818     14820
     14821     14822     14821     14823     14824     14825     14824     14826
     14827     14828     14827     14829     14830     14831     14830     14832
     14833     14834     14833     14835     14836     14837     14836     14838
     14839     14840     14839     14841     14842     14843     14842     14844
     14845     14846     14845     14847     14848     14849     14848     14850
     14851     14852     14851     14853     14854     14855     14854     14856
     14857     14858     14857     14859     14860     14861     14860     14862
     14863     14864     14863     14865     14866     14867     14866     14868
     14869     14870     14869     14871     14872     14873     14872     14874
     14875     14876     14875     14877     14878     14879     14878     14880
     14881     14882     14881     14883     14884     14885     14884     14886
     14887     14888     14887     14889     14890     14891     14890     14892
     14893     14894     14893     14895     14896     14897     14896     14898
     14899     14900     14899     14901     14902     14903     14902     14904
     14905     14906     14905     14907     14908     14909     14908     14910
     14911     14912     14911     14913     14914     14915     14914     14916
     14917     14918     14917     14919     14920     14921     14920     14922
     14923     14924     14923     14925     14926     14927     14926     14928
     14929     14930     14929     14931     14932     14933     14932     14934
     14935     14936     14935     14937     14938     14939     14938     14940
     14941     14942     14941     14943     14944     14945     14944     14946
     14947     14948     14947     14949     14950     14951     14950     14952
     14953     14954     14953     14955     14956     14957     14956     14958
     14959     14960     14959     14961     14962     14963     14962     14964
     14965     14966     14965     14967     14968     14969     14968     14970
     14971     14972     14971     14973     14974     14975     14974     14976
     14977     14978     14977     14979     14980     14981     14980     14982
     14983     14984     14983     14985     14986     14987     14986     14988
     14989     14990     14989     14991     14992     14993     14992     14994
     14995     14996     14995     14997     14998     14999     14998     15000
     15001     15002     15001     15003     15004     15005     15004     15006
     15007     15008     15007     15009     15010     15011     15010     15012
     15013     15014     15013     15015     15016     15017     15016     15018
     15019     15020     15019     15021     15022     15023     15022     15024
     15025     15026     15025     15027     15028     15029     15028     15030
     15031     15032     15031     15033     15034     15035     15034     15036
     15037     15038     15037     15039     15040     15041     15040     15042
     15043     15044     15043     15045     15046     15047     15046     15048
     15049     15050     15049     15051     15052     15053     15052     15054
     15055     15056     15055     15057     15058     15059     15058     15060
     15061     15062     15061     15063     15064     15065     15064     15066
     15067     15068     15067     15069     15070     15071     15070     15072
     15073     15074     15073     15075     15076     15077     15076     15078
     15079     15080     15079     15081     15082     15083     15082     15084
     15085     15086     15085     15087     15088     15089     15088     15090
     15091     15092     15091     15093     15094     15095     15094     15096
     15097     15098     15097     15099     15100     15101     15100     15102
     15103     15104     15103     15105     15106     15107     15106     15108
     15109     15110     15109     15111     15112     15113     15112     15114
     15115     15116     15115     15117     15118     15119     15118     15120
     15121     15122     15121     15123     15124     15125     15124     15126
     15127     15128     15127     15129     15130     15131     15130     15132
     15133     15134     15133     15135     15136     15137     15136     15138
     15139     15140     15139     15141     15142     15143     15142     15144
     15145     15146     15145     15147     15148     15149     15148     15150
     15151     15152     15151     15153     15154     15155     15154     15156
     15157     15158     15157     15159     15160     15161     15160     15162
     15163     15164     15163     15165     15166     15167     15166     15168
     15169     15170     15169     15171     15172     15173     15172     15174
     15175     15176     15175     15177     15178     15179     15178     15180
     15181     15182     15181     15183     15184     15185     15184     15186
     15187     15188     15187     15189     15190     15191     15190     15192
     15193     15194     15193     15195     15196     15197     15196     15198
     15199     15200     15199     15201     15202     15203     15202     15204
     15205     15206     15205     15207     15208     15209     15208     15210
     15211     15212     15211     15213     15214     15215     15214     15216
     15217     15218     15217     15219     15220     15221     15220     15222
     15223     15224     15223     15225     15226     15227     15226     15228
     15229     15230     15229     15231     15232     15233     15232     15234
     15235     15236     15235     15237     15238     15239     15238     15240
     15241     15242     15241     15243     15244     15245     15244     15246
     15247     15248     15247     15249     15250     15251     15250     15252
     15253     15254     15253     15255     15256     15257     15256     15258
     15259     15260     15259     15261     15262     15263     15262     15264
     15265     15266     15265     15267     15268     15269     15268     15270
     15271     15272     15271     15273     15274     15275     15274     15276
     15277     15278     15277     15279     15280     15281     15280     15282
     15283     15284     15283     15285     15286     15287     15286     15288
     15289     15290     15289     15291     15292     15293     15292     15294
     15295     15296     15295     15297     15298     15299     15298     15300
     15301     15302     15301     15303     15304     15305     15304     15306
     15307     15308     15307     15309     15310     15311     15310     15312
     15313     15314     15313     15315     15316     15317     15316     15318
     15319     15320     15319     15321     15322     15323     15322     15324
     15325     15326     15325     15327     15328     15329     15328     15330
     15331     15332     15331     15333     15334     15335     15334     15336
     15337     15338     15337     15339     15340     15341     15340     15342
     15343     15344     15343     15345     15346     15347     15346     15348
     15349     15350     15349     15351     15352     15353     15352     15354
     15355     15356     15355     15357     15358     15359     15358     15360
     15361     15362     15361     15363     15364     15365     15364     15366
     15367     15368     15367     15369     15370     15371     15370     15372
     15373     15374     15373     15375     15376     15377     15376     15378
     15379     15380     15379     15381     15382     15383     15382     15384
     15385     15386     15385     15387     15388     15389     15388     15390
     15391     15392     15391     15393     15394     15395     15394     15396
     15397     15398     15397     15399     15400     15401     15400     15402
     15403     15404     15403     15405     15406     15407     15406     15408
     15409     15410     15409     15411     15412     15413     15412     15414
     15415     15416     15415     15417     15418     15419     15418     15420
     15421     15422     15421     15423     15424     15425     15424     15426
     15427     15428     15427     15429     15430     15431     15430     15432
     15433     15434     15433     15435     15436     15437     15436     15438
     15439     15440     15439     15441     15442     15443     15442     15444
     15445     15446     15445     15447     15448     15449     15448     15450
     15451     15452     15451     15453     15454     15455     15454     15456
     15457     15458     15457     15459     15460     15461     15460     15462
     15463     15464     15463     15465     15466     15467     15466     15468
     15469     15470     15469     15471     15472     15473     15472     15474
     15475     15476     15475     15477     15478     15479     15478     15480
     15481     15482     15481     15483     15484     15485     15484     15486
     15487     15488     15487     15489     15490     15491     15490     15492
     15493     15494     15493     15495     15496     15497     15496     15498
     15499     15500     15499     15501     15502     15503     15502     15504
     15505     15506     15505     15507     15508     15509     15508     15510
     15511     15512     15511     15513     15514     15515     15514     15516
     15517     15518     15517     15519     15520     15521     15520     15522
     15523     15524     15523     15525     15526     15527     15526     15528
     15529     15530     15529     15531     15532     15533     15532     15534
     15535     15536     15535     15537     15538     15539     15538     15540
     15541     15542     15541     15543     15544     15545     15544     15546
     15547     15548     15547     15549     15550     15551     15550     15552
     15553     15554     15553     15555     15556     15557     15556     15558
     15559     15560     15559     15561     15562     15563     15562     15564
     15565     15566     15565     15567     15568     15569     15568     15570
     15571     15572     15571     15573     15574     15575     15574     15576
     15577     15578     15577     15579     15580     15581     15580     15582
     15583     15584     15583     15585     15586     15587     15586     15588
     15589     15590     15589     15591     15592     15593     15592     15594
     15595     15596     15595     15597     15598     15599     15598     15600
     15601     15602     15601     15603     15604     15605     15604     15606
     15607     15608     15607     15609     15610     15611     15610     15612
     15613     15614     15613     15615     15616     15617     15616     15618
     15619     15620     15619     15621     15622     15623     15622     15624
     15625     15626     15625     15627     15628     15629     15628     15630
     15631     15632     15631     15633     15634     15635     15634     15636
     15637     15638     15637     15639     15640     15641     15640     15642
     15643     15644     15643     15645     15646     15647     15646     15648
     15649     15650     15649     15651     15652     15653     15652     15654
     15655     15656     15655     15657     15658     15659     15658     15660
     15661     15662     15661     15663     15664     15665     15664     15666
     15667     15668     15667     15669     15670     15671     15670     15672
     15673     15674     15673     15675     15676     15677     15676     15678
     15679     15680     15679     15681     15682     15683     15682     15684
     15685     15686     15685     15687     15688     15689     15688     15690
     15691     15692     15691     15693     15694     15695     15694     15696
     15697     15698     15697     15699     15700     15701     15700     15702
     15703     15704     15703     15705     15706     15707     15706     15708
     15709     15710     15709     15711     15712     15713     15712     15714
     15715     15716     15715     15717     15718     15719     15718     15720
     15721     15722     15721     15723     15724     15725     15724     15726
     15727     15728     15727     15729     15730     15731     15730     15732
     15733     15734     15733     15735     15736     15737     15736     15738
     15739     15740     15739     15741     15742     15743     15742     15744
     15745     15746     15745     15747     15748     15749     15748     15750
     15751     15752     15751     15753     15754     15755     15754     15756
     15757     15758     15757     15759     15760     15761     15760     15762
     15763     15764     15763     15765     15766     15767     15766     15768
     15769     15770     15769     15771     15772     15773     15772     15774
     15775     15776     15775     15777     15778     15779     15778     15780
     15781     15782     15781     15783     15784     15785     15784     15786
     15787     15788     15787     15789     15790     15791     15790     15792
     15793     15794     15793     15795     15796     15797     15796     15798
     15799     15800     15799     15801     15802     15803     15802     15804
     15805     15806     15805     15807     15808     15809     15808     15810
     15811     15812     15811     15813     15814     15815     15814     15816
     15817     15818     15817     15819     15820     15821     15820     15822
     15823     15824     15823     15825     15826     15827     15826     15828
     15829     15830     15829     15831     15832     15833     15832     15834
     15835     15836     15835     15837     15838     15839     15838     15840
     15841     15842     15841     15843     15844     15845     15844     15846
     15847     15848     15847     15849     15850     15851     15850     15852
     15853     15854     15853     15855     15856     15857     15856     15858
     15859     15860     15859     15861     15862     15863     15862     15864
     15865     15866     15865     15867     15868     15869     15868     15870
     15871     15872     15871     15873     15874     15875     15874     15876
     15877     15878     15877     15879     15880     15881     15880     15882
     15883     15884     15883     15885     15886     15887     15886     15888
     15889     15890     15889     15891     15892     15893     15892     15894
     15895     15896     15895     15897     15898     15899     15898     15900
     15901     15902     15901     15903     15904     15905     15904     15906
     15907     15908     15907     15909     15910     15911     15910     15912
     15913     15914     15913     15915     15916     15917     15916     15918
     15919     15920     15919     15921     15922     15923     15922     15924
     15925     15926     15925     15927     15928     15929     15928     15930
     15931     15932     15931     15933     15934     15935     15934     15936
     15937     15938     15937     15939     15940     15941     15940     15942
     15943     15944     15943     15945     15946     15947     15946     15948
     15949     15950     15949     15951     15952     15953     15952     15954
     15955     15956     15955     15957     15958     15959     15958     15960
     15961     15962     15961     15963     15964     15965     15964     15966
     15967     15968     15967     15969     15970     15971     15970     15972
     15973     15974     15973     15975     15976     15977     15976     15978
     15979     15980     15979     15981     15982     15983     15982     15984
     15985     15986     15985     15987     15988     15989     15988     15990
     15991     15992     15991     15993     15994     15995     15994     15996
     15997     15998     15997     15999     16000     16001     16000     16002
     16003     16004     16003     16005     16006     16007     16006     16008
     16009     16010     16009     16011     16012     16013     16012     16014
     16015     16016     16015     16017     16018     16019     16018     16020
     16021     16022     16021     16023     16024     16025     16024     16026
     16027     16028     16027     16029     16030     16031     16030     16032
     16033     16034     16033     16035     16036     16037     16036     16038
     16039     16040     16039     16041     16042     16043     16042     16044
     16045     16046     16045     16047     16048     16049     16048     16050
     16051     16052     16051     16053     16054     16055     16054     16056
     16057     16058     16057     16059     16060     16061     16060     16062
     16063     16064     16063     16065     16066     16067     16066     16068
     16069     16070     16069     16071     16072     16073     16072     16074
     16075     16076     16075     16077     16078     16079     16078     16080
     16081     16082     16081     16083     16084     16085     16084     16086
     16087     16088     16087     16089     16090     16091     16090     16092
     16093     16094     16093     16095     16096     16097     16096     16098
     16099     16100     16099     16101     16102     16103     16102     16104
     16105     16106     16105     16107     16108     16109     16108     16110
     16111     16112     16111     16113     16114     16115     16114     16116
     16117     16118     16117     16119     16120     16121     16120     16122
     16123     16124     16123     16125     16126     16127     16126     16128
     16129     16130     16129     16131     16132     16133     16132     16134
     16135     16136     16135     16137     16138     16139     16138     16140
     16141     16142     16141     16143     16144     16145     16144     16146
     16147     16148     16147     16149     16150     16151     16150     16152
     16153     16154     16153     16155     16156     16157     16156     16158
     16159     16160     16159     16161     16162     16163     16162     16164
     16165     16166     16165     16167     16168     16169     16168     16170
     16171     16172     16171     16173     16174     16175     16174     16176
     16177     16178     16177     16179     16180     16181     16180     16182
     16183     16184     16183     16185     16186     16187     16186     16188
     16189     16190     16189     16191     16192     16193     16192     16194
     16195     16196     16195     16197     16198     16199     16198     16200
     16201     16202     16201     16203     16204     16205     16204     16206
     16207     16208     16207     16209     16210     16211     16210     16212
     16213     16214     16213     16215     16216     16217     16216     16218
     16219     16220     16219     16221     16222     16223     16222     16224
     16225     16226     16225     16227     16228     16229     16228     16230
     16231     16232     16231     16233     16234     16235     16234     16236
     16237     16238     16237     16239     16240     16241     16240     16242
     16243     16244     16243     16245     16246     16247     16246     16248
     16249     16250     16249     16251     16252     16253     16252     16254
     16255     16256     16255     16257     16258     16259     16258     16260
     16261     16262     16261     16263     16264     16265     16264     16266
     16267     16268     16267     16269     16270     16271     16270     16272
     16273     16274     16273     16275     16276     16277     16276     16278
     16279     16280     16279     16281     16282     16283     16282     16284
     16285     16286     16285     16287     16288     16289     16288     16290
     16291     16292     16291     16293     16294     16295     16294     16296
     16297     16298     16297     16299     16300     16301     16300     16302
     16303     16304     16303     16305     16306     16307     16306     16308
     16309     16310     16309     16311     16312     16313     16312     16314
     16315     16316     16315     16317     16318     16319     16318     16320
     16321     16322     16321     16323     16324     16325     16324     16326
     16327     16328     16327     16329     16330     16331     16330     16332
     16333     16334     16333     16335     16336     16337     16336     16338
     16339     16340     16339     16341     16342     16343     16342     16344
     16345     16346     16345     16347     16348     16349     16348     16350
     16351     16352     16351     16353     16354     16355     16354     16356
     16357     16358     16357     16359     16360     16361     16360     16362
     16363     16364     16363     16365     16366     16367     16366     16368
     16369     16370     16369     16371     16372     16373     16372     16374
     16375     16376     16375     16377     16378     16379     16378     16380
     16381     16382     16381     16383     16384     16385     16384     16386
     16387     16388     16387     16389     16390     16391     16390     16392
     16393     16394     16393     16395     16396     16397     16396     16398
     16399     16400     16399     16401     16402     16403     16402     16404
     16405     16406     16405     16407     16408     16409     16408     16410
     16411     16412     16411     16413     16414     16415     16414     16416
     16417     16418     16417     16419     16420     16421     16420     16422
     16423     16424     16423     16425     16426     16427     16426     16428
     16429     16430     16429     16431     16432     16433     16432     16434
     16435     16436     16435     16437     16438     16439     16438     16440
     16441     16442     16441     16443     16444     16445     16444     16446
     16447     16448     16447     16449     16450     16451     16450     16452
     16453     16454     16453     16455     16456     16457     16456     16458
     16459     16460     16459     16461     16462     16463     16462     16464
     16465     16466     16465     16467     16468     16469     16468     16470
     16471     16472     16471     16473     16474     16475     16474     16476
     16477     16478     16477     16479     16480     16481     16480     16482
     16483     16484     16483     16485     16486     16487     16486     16488
     16489     16490     16489     16491     16492     16493     16492     16494
     16495     16496     16495     16497     16498     16499     16498     16500
     16501     16502     16501     16503     16504     16505     16504     16506
     16507     16508     16507     16509     16510     16511     16510     16512
     16513     16514     16513     16515     16516     16517     16516     16518
     16519     16520     16519     16521     16522     16523     16522     16524
     16525     16526     16525     16527     16528     16529     16528     16530
     16531     16532     16531     16533     16534     16535     16534     16536
     16537     16538     16537     16539     16540     16541     16540     16542
     16543     16544     16543     16545     16546     16547     16546     16548
     16549     16550     16549     16551     16552     16553     16552     16554
     16555     16556     16555     16557     16558     16559     16558     16560
     16561     16562     16561     16563     16564     16565     16564     16566
     16567     16568     16567     16569     16570     16571     16570     16572
     16573     16574     16573     16575     16576     16577     16576     16578
     16579     16580     16579     16581     16582     16583     16582     16584
     16585     16586     16585     16587     16588     16589     16588     16590
     16591     16592     16591     16593     16594     16595     16594     16596
     16597     16598     16597     16599     16600     16601     16600     16602
     16603     16604     16603     16605     16606     16607     16606     16608
     16609     16610     16609     16611     16612     16613     16612     16614
     16615     16616     16615     16617     16618     16619     16618     16620
     16621     16622     16621     16623     16624     16625     16624     16626
     16627     16628     16627     16629     16630     16631     16630     16632
     16633     16634     16633     16635     16636     16637     16636     16638
     16639     16640     16639     16641     16642     16643     16642     16644
     16645     16646     16645     16647     16648     16649     16648     16650
     16651     16652     16651     16653     16654     16655     16654     16656
     16657     16658     16657     16659     16660     16661     16660     16662
     16663     16664     16663     16665     16666     16667     16666     16668
     16669     16670     16669     16671     16672     16673     16672     16674
     16675     16676     16675     16677     16678     16679     16678     16680
     16681     16682     16681     16683     16684     16685     16684     16686
     16687     16688     16687     16689     16690     16691     16690     16692
     16693     16694     16693     16695     16696     16697     16696     16698
     16699     16700     16699     16701     16702     16703     16702     16704
     16705     16706     16705     16707     16708     16709     16708     16710
     16711     16712     16711     16713     16714     16715     16714     16716
     16717     16718     16717     16719     16720     16721     16720     16722
     16723     16724     16723     16725     16726     16727     16726     16728
     16729     16730     16729     16731     16732     16733     16732     16734
     16735     16736     16735     16737     16738     16739     16738     16740
     16741     16742     16741     16743     16744     16745     16744     16746
     16747     16748     16747     16749     16750     16751     16750     16752
     16753     16754     16753     16755     16756     16757     16756     16758
     16759     16760     16759     16761     16762     16763     16762     16764
     16765     16766     16765     16767     16768     16769     16768     16770
     16771     16772     16771     16773     16774     16775     16774     16776
     16777     16778     16777     16779     16780     16781     16780     16782
     16783     16784     16783     16785     16786     16787     16786     16788
     16789     16790     16789     16791     16792     16793     16792     16794
     16795     16796     16795     16797     16798     16799     16798     16800
     16801     16802     16801     16803     16804     16805     16804     16806
     16807     16808     16807     16809     16810     16811     16810     16812
     16813     16814     16813     16815     16816     16817     16816     16818
     16819     16820     16819     16821     16822     16823     16822     16824
     16825     16826     16825     16827     16828     16829     16828     16830
     16831     16832     16831     16833     16834     16835     16834     16836
     16837     16838     16837     16839     16840     16841     16840     16842
     16843     16844     16843     16845     16846     16847     16846     16848
     16849     16850     16849     16851     16852     16853     16852     16854
     16855     16856     16855     16857     16858     16859     16858     16860
     16861     16862     16861     16863     16864     16865     16864     16866
     16867     16868     16867     16869     16870     16871     16870     16872
     16873     16874     16873     16875     16876     16877     16876     16878
     16879     16880     16879     16881     16882     16883     16882     16884
     16885     16886     16885     16887     16888     16889     16888     16890
     16891     16892     16891     16893     16894     16895     16894     16896
     16897     16898     16897     16899     16900     16901     16900     16902
     16903     16904     16903     16905     16906     16907     16906     16908
     16909     16910     16909     16911     16912     16913     16912     16914
     16915     16916     16915     16917     16918     16919     16918     16920
     16921     16922     16921     16923     16924     16925     16924     16926
     16927     16928     16927     16929     16930     16931     16930     16932
     16933     16934     16933     16935     16936     16937     16936     16938
     16939     16940     16939     16941     16942     16943     16942     16944
     16945     16946     16945     16947     16948     16949     16948     16950
     16951     16952     16951     16953     16954     16955     16954     16956
     16957     16958     16957     16959     16960     16961     16960     16962
     16963     16964     16963     16965     16966     16967     16966     16968
     16969     16970     16969     16971     16972     16973     16972     16974
     16975     16976     16975     16977     16978     16979     16978     16980
     16981     16982     16981     16983     16984     16985     16984     16986
     16987     16988     16987     16989     16990     16991     16990     16992
     16993     16994     16993     16995     16996     16997     16996     16998
     16999     17000     16999     17001     17002     17003     17002     17004
     17005     17006     17005     17007     17008     17009     17008     17010
     17011     17012     17011     17013     17014     17015     17014     17016
     17017     17018     17017     17019     17020     17021     17020     17022
     17023     17024     17023     17025     17026     17027     17026     17028
     17029     17030     17029     17031     17032     17033     17032     17034
     17035     17036     17035     17037     17038     17039     17038     17040
     17041     17042     17041     17043     17044     17045     17044     17046
     17047     17048     17047     17049     17050     17051     17050     17052
     17053     17054     17053     17055     17056     17057     17056     17058
     17059     17060     17059     17061     17062     17063     17062     17064
     17065     17066     17065     17067     17068     17069     17068     17070
     17071     17072     17071     17073     17074     17075     17074     17076
     17077     17078     17077     17079     17080     17081     17080     17082
     17083     17084     17083     17085     17086     17087     17086     17088
     17089     17090     17089     17091     17092     17093     17092     17094
     17095     17096     17095     17097     17098     17099     17098     17100
     17101     17102     17101     17103     17104     17105     17104     17106
     17107     17108     17107     17109     17110     17111     17110     17112
     17113     17114     17113     17115     17116     17117     17116     17118
     17119     17120     17119     17121     17122     17123     17122     17124
     17125     17126     17125     17127     17128     17129     17128     17130
     17131     17132     17131     17133     17134     17135     17134     17136
     17137     17138     17137     17139     17140     17141     17140     17142
     17143     17144     17143     17145     17146     17147     17146     17148
     17149     17150     17149     17151     17152     17153     17152     17154
     17155     17156     17155     17157     17158     17159     17158     17160
     17161     17162     17161     17163     17164     17165     17164     17166
     17167     17168     17167     17169     17170     17171     17170     17172
     17173     17174     17173     17175     17176     17177     17176     17178
     17179     17180     17179     17181     17182     17183     17182     17184
     17185     17186     17185     17187     17188     17189     17188     17190
     17191     17192     17191     17193     17194     17195     17194     17196
     17197     17198     17197     17199     17200     17201     17200     17202
     17203     17204     17203     17205     17206     17207     17206     17208
     17209     17210     17209     17211     17212     17213     17212     17214
     17215     17216     17215     17217     17218     17219     17218     17220
     17221     17222     17221     17223     17224     17225     17224     17226
     17227     17228     17227     17229     17230     17231     17230     17232
     17233     17234     17233     17235     17236     17237     17236     17238
     17239     17240     17239     17241     17242     17243     17242     17244
     17245     17246     17245     17247     17248     17249     17248     17250
     17251     17252     17251     17253     17254     17255     17254     17256
     17257     17258     17257     17259     17260     17261     17260     17262
     17263     17264     17263     17265     17266     17267     17266     17268
     17269     17270     17269     17271     17272     17273     17272     17274
     17275     17276     17275     17277     17278     17279     17278     17280
     17281     17282     17281     17283     17284     17285     17284     17286
     17287     17288     17287     17289     17290     17291     17290     17292
     17293     17294     17293     17295     17296     17297     17296     17298
     17299     17300     17299     17301     17302     17303     17302     17304
     17305     17306     17305     17307     17308     17309     17308     17310
     17311     17312     17311     17313     17314     17315     17314     17316
     17317     17318     17317     17319     17320     17321     17320     17322
     17323     17324     17323     17325     17326     17327     17326     17328
     17329     17330     17329     17331     17332     17333     17332     17334
     17335     17336     17335     17337     17338     17339     17338     17340
     17341     17342     17341     17343     17344     17345     17344     17346
     17347     17348     17347     17349     17350     17351     17350     17352
     17353     17354     17353     17355     17356     17357     17356     17358
     17359     17360     17359     17361     17362     17363     17362     17364
     17365     17366     17365     17367     17368     17369     17368     17370
     17371     17372     17371     17373     17374     17375     17374     17376
     17377     17378     17377     17379     17380     17381     17380     17382
     17383     17384     17383     17385     17386     17387     17386     17388
     17389     17390     17389     17391     17392     17393     17392     17394
     17395     17396     17395     17397     17398     17399     17398     17400
     17401     17402     17401     17403     17404     17405     17404     17406
     17407     17408     17407     17409     17410     17411     17410     17412
     17413     17414     17413     17415     17416     17417     17416     17418
     17419     17420     17419     17421     17422     17423     17422     17424
     17425     17426     17425     17427     17428     17429     17428     17430
     17431     17432     17431     17433     17434     17435     17434     17436
     17437     17438     17437     17439     17440     17441     17440     17442
     17443     17444     17443     17445     17446     17447     17446     17448
     17449     17450     17449     17451     17452     17453     17452     17454
     17455     17456     17455     17457     17458     17459     17458     17460
     17461     17462     17461     17463     17464     17465     17464     17466
     17467     17468     17467     17469     17470     17471     17470     17472
     17473     17474     17473     17475     17476     17477     17476     17478
     17479     17480     17479     17481     17482     17483     17482     17484
     17485     17486     17485     17487     17488     17489     17488     17490
     17491     17492     17491     17493     17494     17495     17494     17496
     17497     17498     17497     17499     17500     17501     17500     17502
     17503     17504     17503     17505     17506     17507     17506     17508
     17509     17510     17509     17511     17512     17513     17512     17514
     17515     17516     17515     17517     17518     17519     17518     17520
     17521     17522     17521     17523     17524     17525     17524     17526
     17527     17528     17527     17529     17530     17531     17530     17532
     17533     17534     17533     17535     17536     17537     17536     17538
     17539     17540     17539     17541     17542     17543     17542     17544
     17545     17546     17545     17547     17548     17549     17548     17550
     17551     17552     17551     17553     17554     17555     17554     17556
     17557     17558     17557     17559     17560     17561     17560     17562
     17563     17564     17563     17565     17566     17567     17566     17568
     17569     17570     17569     17571     17572     17573     17572     17574
     17575     17576     17575     17577     17578     17579     17578     17580
     17581     17582     17581     17583     17584     17585     17584     17586
     17587     17588     17587     17589     17590     17591     17590     17592
     17593     17594     17593     17595     17596     17597     17596     17598
     17599     17600     17599     17601     17602     17603     17602     17604
     17605     17606     17605     17607     17608     17609     17608     17610
     17611     17612     17611     17613     17614     17615     17614     17616
     17617     17618     17617     17619     17620     17621     17620     17622
     17623     17624     17623     17625     17626     17627     17626     17628
     17629     17630     17629     17631     17632     17633     17632     17634
     17635     17636     17635     17637     17638     17639     17638     17640
     17641     17642     17641     17643     17644     17645     17644     17646
     17647     17648     17647     17649     17650     17651     17650     17652
     17653     17654     17653     17655     17656     17657     17656     17658
     17659     17660     17659     17661     17662     17663     17662     17664
     17665     17666     17665     17667     17668     17669     17668     17670
     17671     17672     17671     17673     17674     17675     17674     17676
     17677     17678     17677     17679     17680     17681     17680     17682
     17683     17684     17683     17685     17686     17687     17686     17688
     17689     17690     17689     17691     17692     17693     17692     17694
     17695     17696     17695     17697     17698     17699     17698     17700
     17701     17702     17701     17703     17704     17705     17704     17706
     17707     17708     17707     17709     17710     17711     17710     17712
     17713     17714     17713     17715     17716     17717     17716     17718
     17719     17720     17719     17721     17722     17723     17722     17724
     17725     17726     17725     17727     17728     17729     17728     17730
     17731     17732     17731     17733     17734     17735     17734     17736
     17737     17738     17737     17739     17740     17741     17740     17742
     17743     17744     17743     17745     17746     17747     17746     17748
     17749     17750     17749     17751     17752     17753     17752     17754
     17755     17756     17755     17757     17758     17759     17758     17760
     17761     17762     17761     17763     17764     17765     17764     17766
     17767     17768     17767     17769     17770     17771     17770     17772
     17773     17774     17773     17775     17776     17777     17776     17778
     17779     17780     17779     17781     17782     17783     17782     17784
     17785     17786     17785     17787     17788     17789     17788     17790
     17791     17792     17791     17793     17794     17795     17794     17796
     17797     17798     17797     17799     17800     17801     17800     17802
     17803     17804     17803     17805     17806     17807     17806     17808
     17809     17810     17809     17811     17812     17813     17812     17814
     17815     17816     17815     17817     17818     17819     17818     17820
     17821     17822     17821     17823     17824     17825     17824     17826
     17827     17828     17827     17829     17830     17831     17830     17832
     17833     17834     17833     17835     17836     17837     17836     17838
     17839     17840     17839     17841     17842     17843     17842     17844
     17845     17846     17845     17847     17848     17849     17848     17850
     17851     17852     17851     17853     17854     17855     17854     17856
     17857     17858     17857     17859     17860     17861     17860     17862
     17863     17864     17863     17865     17866     17867     17866     17868
     17869     17870     17869     17871     17872     17873     17872     17874
     17875     17876     17875     17877     17878     17879     17878     17880
     17881     17882     17881     17883     17884     17885     17884     17886
     17887     17888     17887     17889     17890     17891     17890     17892
     17893     17894     17893     17895     17896     17897     17896     17898
     17899     17900     17899     17901     17902     17903     17902     17904
     17905     17906     17905     17907     17908     17909     17908     17910
     17911     17912     17911     17913     17914     17915     17914     17916
     17917     17918     17917     17919     17920     17921     17920     17922
     17923     17924     17923     17925     17926     17927     17926     17928
     17929     17930     17929     17931     17932     17933     17932     17934
     17935     17936     17935     17937     17938     17939     17938     17940
     17941     17942     17941     17943     17944     17945     17944     17946
     17947     17948     17947     17949     17950     17951     17950     17952
     17953     17954     17953     17955     17956     17957     17956     17958
     17959     17960     17959     17961     17962     17963     17962     17964
     17965     17966     17965     17967     17968     17969     17968     17970
     17971     17972     17971     17973     17974     17975     17974     17976
     17977     17978     17977     17979     17980     17981     17980     17982
     17983     17984     17983     17985     17986     17987     17986     17988
     17989     17990     17989     17991     17992     17993     17992     17994
     17995     17996     17995     17997     17998     17999     17998     18000
     18001     18002     18001     18003     18004     18005     18004     18006
     18007     18008     18007     18009     18010     18011     18010     18012
     18013     18014     18013     18015     18016     18017     18016     18018
     18019     18020     18019     18021     18022     18023     18022     18024
     18025     18026     18025     18027     18028     18029     18028     18030
     18031     18032     18031     18033     18034     18035     18034     18036
     18037     18038     18037     18039     18040     18041     18040     18042
     18043     18044     18043     18045     18046     18047     18046     18048
     18049     18050     18049     18051     18052     18053     18052     18054
     18055     18056     18055     18057     18058     18059     18058     18060
     18061     18062     18061     18063     18064     18065     18064     18066
     18067     18068     18067     18069     18070     18071     18070     18072
     18073     18074     18073     18075     18076     18077     18076     18078
     18079     18080     18079     18081     18082     18083     18082     18084
     18085     18086     18085     18087     18088     18089     18088     18090
     18091     18092     18091     18093     18094     18095     18094     18096
     18097     18098     18097     18099     18100     18101     18100     18102
     18103     18104     18103     18105     18106     18107     18106     18108
     18109     18110     18109     18111     18112     18113     18112     18114
     18115     18116     18115     18117     18118     18119     18118     18120
     18121     18122     18121     18123     18124     18125     18124     18126
     18127     18128     18127     18129     18130     18131     18130     18132
     18133     18134     18133     18135     18136     18137     18136     18138
     18139     18140     18139     18141     18142     18143     18142     18144
     18145     18146     18145     18147     18148     18149     18148     18150
     18151     18152     18151     18153     18154     18155     18154     18156
     18157     18158     18157     18159     18160     18161     18160     18162
     18163     18164     18163     18165     18166     18167     18166     18168
     18169     18170     18169     18171     18172     18173     18172     18174
     18175     18176     18175     18177     18178     18179     18178     18180
     18181     18182     18181     18183     18184     18185     18184     18186
     18187     18188     18187     18189     18190     18191     18190     18192
     18193     18194     18193     18195     18196     18197     18196     18198
     18199     18200     18199     18201     18202     18203     18202     18204
     18205     18206     18205     18207     18208     18209     18208     18210
     18211     18212     18211     18213     18214     18215     18214     18216
     18217     18218     18217     18219     18220     18221     18220     18222
     18223     18224     18223     18225     18226     18227     18226     18228
     18229     18230     18229     18231     18232     18233     18232     18234
     18235     18236     18235     18237     18238     18239     18238     18240
     18241     18242     18241     18243     18244     18245     18244     18246
     18247     18248     18247     18249     18250     18251     18250     18252
     18253     18254     18253     18255     18256     18257     18256     18258
     18259     18260     18259     18261     18262     18263     18262     18264
     18265     18266     18265     18267     18268     18269     18268     18270
     18271     18272     18271     18273     18274     18275     18274     18276
     18277     18278     18277     18279     18280     18281     18280     18282
     18283     18284     18283     18285     18286     18287     18286     18288
     18289     18290     18289     18291     18292     18293     18292     18294
     18295     18296     18295     18297     18298     18299     18298     18300
     18301     18302     18301     18303     18304     18305     18304     18306
     18307     18308     18307     18309     18310     18311     18310     18312
     18313     18314     18313     18315     18316     18317     18316     18318
     18319     18320     18319     18321     18322     18323     18322     18324
     18325     18326     18325     18327     18328     18329     18328     18330
     18331     18332     18331     18333     18334     18335     18334     18336
     18337     18338     18337     18339     18340     18341     18340     18342
     18343     18344     18343     18345     18346     18347     18346     18348
     18349     18350     18349     18351     18352     18353     18352     18354
     18355     18356     18355     18357     18358     18359     18358     18360
     18361     18362     18361     18363     18364     18365     18364     18366
     18367     18368     18367     18369     18370     18371     18370     18372
     18373     18374     18373     18375     18376     18377     18376     18378
     18379     18380     18379     18381     18382     18383     18382     18384
     18385     18386     18385     18387     18388     18389     18388     18390
     18391     18392     18391     18393     18394     18395     18394     18396
     18397     18398     18397     18399     18400     18401     18400     18402
     18403     18404     18403     18405     18406     18407     18406     18408
     18409     18410     18409     18411     18412     18413     18412     18414
     18415     18416     18415     18417     18418     18419     18418     18420
     18421     18422     18421     18423     18424     18425     18424     18426
     18427     18428     18427     18429     18430     18431     18430     18432
     18433     18434     18433     18435     18436     18437     18436     18438
     18439     18440     18439     18441     18442     18443     18442     18444
     18445     18446     18445     18447     18448     18449     18448     18450
     18451     18452     18451     18453     18454     18455     18454     18456
     18457     18458     18457     18459     18460     18461     18460     18462
     18463     18464     18463     18465     18466     18467     18466     18468
     18469     18470     18469     18471     18472     18473     18472     18474
     18475     18476     18475     18477     18478     18479     18478     18480
     18481     18482     18481     18483     18484     18485     18484     18486
     18487     18488     18487     18489     18490     18491     18490     18492
     18493     18494     18493     18495     18496     18497     18496     18498
     18499     18500     18499     18501     18502     18503     18502     18504
     18505     18506     18505     18507     18508     18509     18508     18510
     18511     18512     18511     18513     18514     18515     18514     18516
     18517     18518     18517     18519     18520     18521     18520     18522
     18523     18524     18523     18525     18526     18527     18526     18528
     18529     18530     18529     18531     18532     18533     18532     18534
     18535     18536     18535     18537     18538     18539     18538     18540
     18541     18542     18541     18543     18544     18545     18544     18546
     18547     18548     18547     18549     18550     18551     18550     18552
     18553     18554     18553     18555     18556     18557     18556     18558
     18559     18560     18559     18561     18562     18563     18562     18564
     18565     18566     18565     18567     18568     18569     18568     18570
     18571     18572     18571     18573     18574     18575     18574     18576
     18577     18578     18577     18579     18580     18581     18580     18582
     18583     18584     18583     18585     18586     18587     18586     18588
     18589     18590     18589     18591     18592     18593     18592     18594
     18595     18596     18595     18597     18598     18599     18598     18600
     18601     18602     18601     18603     18604     18605     18604     18606
     18607     18608     18607     18609     18610     18611     18610     18612
     18613     18614     18613     18615     18616     18617     18616     18618
     18619     18620     18619     18621     18622     18623     18622     18624
     18625     18626     18625     18627     18628     18629     18628     18630
     18631     18632     18631     18633     18634     18635     18634     18636
     18637     18638     18637     18639     18640     18641     18640     18642
     18643     18644     18643     18645     18646     18647     18646     18648
     18649     18650     18649     18651     18652     18653     18652     18654
     18655     18656     18655     18657     18658     18659     18658     18660
     18661     18662     18661     18663     18664     18665     18664     18666
     18667     18668     18667     18669     18670     18671     18670     18672
     18673     18674     18673     18675     18676     18677     18676     18678
     18679     18680     18679     18681     18682     18683     18682     18684
     18685     18686     18685     18687     18688     18689     18688     18690
     18691     18692     18691     18693     18694     18695     18694     18696
     18697     18698     18697     18699     18700     18701     18700     18702
     18703     18704     18703     18705     18706     18707     18706     18708
     18709     18710     18709     18711     18712     18713     18712     18714
     18715     18716     18715     18717     18718     18719     18718     18720
     18721     18722     18721     18723     18724     18725     18724     18726
     18727     18728     18727     18729     18730     18731     18730     18732
     18733     18734     18733     18735     18736     18737     18736     18738
     18739     18740     18739     18741     18742     18743     18742     18744
     18745     18746     18745     18747     18748     18749     18748     18750
     18751     18752     18751     18753     18754     18755     18754     18756
     18757     18758     18757     18759     18760     18761     18760     18762
     18763     18764     18763     18765     18766     18767     18766     18768
     18769     18770     18769     18771     18772     18773     18772     18774
     18775     18776     18775     18777     18778     18779     18778     18780
     18781     18782     18781     18783     18784     18785     18784     18786
     18787     18788     18787     18789     18790     18791     18790     18792
     18793     18794     18793     18795     18796     18797     18796     18798
     18799     18800     18799     18801     18802     18803     18802     18804
     18805     18806     18805     18807     18808     18809     18808     18810
     18811     18812     18811     18813     18814     18815     18814     18816
     18817     18818     18817     18819     18820     18821     18820     18822
     18823     18824     18823     18825     18826     18827     18826     18828
     18829     18830     18829     18831     18832     18833     18832     18834
     18835     18836     18835     18837     18838     18839     18838     18840
     18841     18842     18841     18843     18844     18845     18844     18846
     18847     18848     18847     18849     18850     18851     18850     18852
     18853     18854     18853     18855     18856     18857     18856     18858
     18859     18860     18859     18861     18862     18863     18862     18864
     18865     18866     18865     18867     18868     18869     18868     18870
     18871     18872     18871     18873     18874     18875     18874     18876
     18877     18878     18877     18879     18880     18881     18880     18882
     18883     18884     18883     18885     18886     18887     18886     18888
     18889     18890     18889     18891     18892     18893     18892     18894
     18895     18896     18895     18897     18898     18899     18898     18900
     18901     18902     18901     18903     18904     18905     18904     18906
     18907     18908     18907     18909     18910     18911     18910     18912
     18913     18914     18913     18915     18916     18917     18916     18918
     18919     18920     18919     18921     18922     18923     18922     18924
     18925     18926     18925     18927     18928     18929     18928     18930
     18931     18932     18931     18933     18934     18935     18934     18936
     18937     18938     18937     18939     18940     18941     18940     18942
     18943     18944     18943     18945     18946     18947     18946     18948
     18949     18950     18949     18951     18952     18953     18952     18954
     18955     18956     18955     18957     18958     18959     18958     18960
     18961     18962     18961     18963     18964     18965     18964     18966
     18967     18968     18967     18969     18970     18971     18970     18972
     18973     18974     18973     18975     18976     18977     18976     18978
     18979     18980     18979     18981     18982     18983     18982     18984
     18985     18986     18985     18987     18988     18989     18988     18990
     18991     18992     18991     18993     18994     18995     18994     18996
     18997     18998     18997     18999     19000     19001     19000     19002
     19003     19004     19003     19005     19006     19007     19006     19008
     19009     19010     19009     19011     19012     19013     19012     19014
     19015     19016     19015     19017     19018     19019     19018     19020
     19021     19022     19021     19023     19024     19025     19024     19026
     19027     19028     19027     19029     19030     19031     19030     19032
     19033     19034     19033     19035     19036     19037     19036     19038
     19039     19040     19039     19041     19042     19043     19042     19044
     19045     19046     19045     19047     19048     19049     19048     19050
     19051     19052     19051     19053     19054     19055     19054     19056
     19057     19058     19057     19059     19060     19061     19060     19062
     19063     19064     19063     19065     19066     19067     19066     19068
     19069     19070     19069     19071     19072     19073     19072     19074
     19075     19076     19075     19077     19078     19079     19078     19080
     19081     19082     19081     19083     19084     19085     19084     19086
     19087     19088     19087     19089     19090     19091     19090     19092
     19093     19094     19093     19095     19096     19097     19096     19098
     19099     19100     19099     19101     19102     19103     19102     19104
     19105     19106     19105     19107     19108     19109     19108     19110
     19111     19112     19111     19113     19114     19115     19114     19116
     19117     19118     19117     19119     19120     19121     19120     19122
     19123     19124     19123     19125     19126     19127     19126     19128
     19129     19130     19129     19131     19132     19133     19132     19134
     19135     19136     19135     19137     19138     19139     19138     19140
     19141     19142     19141     19143     19144     19145     19144     19146
     19147     19148     19147     19149     19150     19151     19150     19152
     19153     19154     19153     19155     19156     19157     19156     19158
     19159     19160     19159     19161     19162     19163     19162     19164
     19165     19166     19165     19167     19168     19169     19168     19170
     19171     19172     19171     19173     19174     19175     19174     19176
     19177     19178     19177     19179     19180     19181     19180     19182
     19183     19184     19183     19185     19186     19187     19186     19188
     19189     19190     19189     19191     19192     19193     19192     19194
     19195     19196     19195     19197     19198     19199     19198     19200
     19201     19202     19201     19203     19204     19205     19204     19206
     19207     19208     19207     19209     19210     19211     19210     19212
     19213     19214     19213     19215     19216     19217     19216     19218
     19219     19220     19219     19221     19222     19223     19222     19224
     19225     19226     19225     19227     19228     19229     19228     19230
     19231     19232     19231     19233     19234     19235     19234     19236
     19237     19238     19237     19239     19240     19241     19240     19242
     19243     19244     19243     19245     19246     19247     19246     19248
     19249     19250     19249     19251     19252     19253     19252     19254
     19255     19256     19255     19257     19258     19259     19258     19260
     19261     19262     19261     19263     19264     19265     19264     19266
     19267     19268     19267     19269     19270     19271     19270     19272
     19273     19274     19273     19275     19276     19277     19276     19278
     19279     19280     19279     19281     19282     19283     19282     19284
     19285     19286     19285     19287     19288     19289     19288     19290
     19291     19292     19291     19293     19294     19295     19294     19296
     19297     19298     19297     19299     19300     19301     19300     19302
     19303     19304     19303     19305     19306     19307     19306     19308
     19309     19310     19309     19311     19312     19313     19312     19314
     19315     19316     19315     19317     19318     19319     19318     19320
     19321     19322     19321     19323     19324     19325     19324     19326
     19327     19328     19327     19329     19330     19331     19330     19332
     19333     19334     19333     19335     19336     19337     19336     19338
     19339     19340     19339     19341     19342     19343     19342     19344
     19345     19346     19345     19347     19348     19349     19348     19350
     19351     19352     19351     19353     19354     19355     19354     19356
     19357     19358     19357     19359     19360     19361     19360     19362
     19363     19364     19363     19365     19366     19367     19366     19368
     19369     19370     19369     19371     19372     19373     19372     19374
     19375     19376     19375     19377     19378     19379     19378     19380
     19381     19382     19381     19383     19384     19385     19384     19386
     19387     19388     19387     19389     19390     19391     19390     19392
     19393     19394     19393     19395     19396     19397     19396     19398
     19399     19400     19399     19401     19402     19403     19402     19404
     19405     19406     19405     19407     19408     19409     19408     19410
     19411     19412     19411     19413     19414     19415     19414     19416
     19417     19418     19417     19419     19420     19421     19420     19422
     19423     19424     19423     19425     19426     19427     19426     19428
     19429     19430     19429     19431     19432     19433     19432     19434
     19435     19436     19435     19437     19438     19439     19438     19440
     19441     19442     19441     19443     19444     19445     19444     19446
     19447     19448     19447     19449     19450     19451     19450     19452
     19453     19454     19453     19455     19456     19457     19456     19458
     19459     19460     19459     19461     19462     19463     19462     19464
     19465     19466     19465     19467     19468     19469     19468     19470
     19471     19472     19471     19473     19474     19475     19474     19476
     19477     19478     19477     19479     19480     19481     19480     19482
     19483     19484     19483     19485     19486     19487     19486     19488
     19489     19490     19489     19491     19492     19493     19492     19494
     19495     19496     19495     19497     19498     19499     19498     19500
     19501     19502     19501     19503     19504     19505     19504     19506
     19507     19508     19507     19509     19510     19511     19510     19512
     19513     19514     19513     19515     19516     19517     19516     19518
     19519     19520     19519     19521     19522     19523     19522     19524
     19525     19526     19525     19527     19528     19529     19528     19530
     19531     19532     19531     19533     19534     19535     19534     19536
     19537     19538     19537     19539     19540     19541     19540     19542
     19543     19544     19543     19545     19546     19547     19546     19548
     19549     19550     19549     19551     19552     19553     19552     19554
     19555     19556     19555     19557     19558     19559     19558     19560
     19561     19562     19561     19563     19564     19565     19564     19566
     19567     19568     19567     19569     19570     19571     19570     19572
     19573     19574     19573     19575     19576     19577     19576     19578
     19579     19580     19579     19581     19582     19583     19582     19584
     19585     19586     19585     19587     19588     19589     19588     19590
     19591     19592     19591     19593     19594     19595     19594     19596
     19597     19598     19597     19599     19600     19601     19600     19602
     19603     19604     19603     19605     19606     19607     19606     19608
     19609     19610     19609     19611     19612     19613     19612     19614
     19615     19616     19615     19617     19618     19619     19618     19620
     19621     19622     19621     19623     19624     19625     19624     19626
     19627     19628     19627     19629     19630     19631     19630     19632
     19633     19634     19633     19635     19636     19637     19636     19638
     19639     19640     19639     19641     19642     19643     19642     19644
     19645     19646     19645     19647     19648     19649     19648     19650
     19651     19652     19651     19653     19654     19655     19654     19656
     19657     19658     19657     19659     19660     19661     19660     19662
     19663     19664     19663     19665     19666     19667     19666     19668
     19669     19670     19669     19671     19672     19673     19672     19674
     19675     19676     19675     19677     19678     19679     19678     19680
     19681     19682     19681     19683     19684     19685     19684     19686
     19687     19688     19687     19689     19690     19691     19690     19692
     19693     19694     19693     19695     19696     19697     19696     19698
     19699     19700     19699     19701     19702     19703     19702     19704
     19705     19706     19705     19707     19708     19709     19708     19710
     19711     19712     19711     19713     19714     19715     19714     19716
     19717     19718     19717     19719     19720     19721     19720     19722
     19723     19724     19723     19725     19726     19727     19726     19728
     19729     19730     19729     19731     19732     19733     19732     19734
     19735     19736     19735     19737     19738     19739     19738     19740
     19741     19742     19741     19743     19744     19745     19744     19746
     19747     19748     19747     19749     19750     19751     19750     19752
     19753     19754     19753     19755     19756     19757     19756     19758
     19759     19760     19759     19761     19762     19763     19762     19764
     19765     19766     19765     19767     19768     19769     19768     19770
     19771     19772     19771     19773     19774     19775     19774     19776
     19777     19778     19777     19779     19780     19781     19780     19782
     19783     19784     19783     19785     19786     19787     19786     19788
     19789     19790     19789     19791     19792     19793     19792     19794
     19795     19796     19795     19797     19798     19799     19798     19800
     19801     19802     19801     19803     19804     19805     19804     19806
     19807     19808     19807     19809     19810     19811     19810     19812
     19813     19814     19813     19815     19816     19817     19816     19818
     19819     19820     19819     19821     19822     19823     19822     19824
     19825     19826     19825     19827     19828     19829     19828     19830
     19831     19832     19831     19833     19834     19835     19834     19836
     19837     19838     19837     19839     19840     19841     19840     19842
     19843     19844     19843     19845     19846     19847     19846     19848
     19849     19850     19849     19851     19852     19853     19852     19854
     19855     19856     19855     19857     19858     19859     19858     19860
     19861     19862     19861     19863     19864     19865     19864     19866
     19867     19868     19867     19869     19870     19871     19870     19872
     19873     19874     19873     19875     19876     19877     19876     19878
     19879     19880     19879     19881     19882     19883     19882     19884
     19885     19886     19885     19887     19888     19889     19888     19890
     19891     19892     19891     19893     19894     19895     19894     19896
     19897     19898     19897     19899     19900     19901     19900     19902
     19903     19904     19903     19905     19906     19907     19906     19908
     19909     19910     19909     19911     19912     19913     19912     19914
     19915     19916     19915     19917     19918     19919     19918     19920
     19921     19922     19921     19923     19924     19925     19924     19926
     19927     19928     19927     19929     19930     19931     19930     19932
     19933     19934     19933     19935     19936     19937     19936     19938
     19939     19940     19939     19941     19942     19943     19942     19944
     19945     19946     19945     19947     19948     19949     19948     19950
     19951     19952     19951     19953     19954     19955     19954     19956
     19957     19958     19957     19959     19960     19961     19960     19962
     19963     19964     19963     19965     19966     19967     19966     19968
     19969     19970     19969     19971     19972     19973     19972     19974
     19975     19976     19975     19977     19978     19979     19978     19980
     19981     19982     19981     19983     19984     19985     19984     19986
     19987     19988     19987     19989     19990     19991     19990     19992
     19993     19994     19993     19995     19996     19997     19996     19998
     19999     20000     19999     20001     20002     20003     20002     20004
     20005     20006     20005     20007     20008     20009     20008     20010
     20011     20012     20011     20013     20014     20015     20014     20016
     20017     20018     20017     20019     20020     20021     20020     20022
     20023     20024     20023     20025     20026     20027     20026     20028
     20029     20030     20029     20031     20032     20033     20032     20034
     20035     20036     20035     20037     20038     20039     20038     20040
     20041     20042     20041     20043     20044     20045     20044     20046
     20047     20048     20047     20049     20050     20051     20050     20052
     20053     20054     20053     20055     20056     20057     20056     20058
     20059     20060     20059     20061     20062     20063     20062     20064
     20065     20066     20065     20067     20068     20069     20068     20070
     20071     20072     20071     20073     20074     20075     20074     20076
     20077     20078     20077     20079     20080     20081     20080     20082
     20083     20084     20083     20085     20086     20087     20086     20088
     20089     20090     20089     20091     20092     20093     20092     20094
     20095     20096     20095     20097     20098     20099     20098     20100
     20101     20102     20101     20103     20104     20105     20104     20106
     20107     20108     20107     20109     20110     20111     20110     20112
     20113     20114     20113     20115     20116     20117     20116     20118
     20119     20120     20119     20121     20122     20123     20122     20124
     20125     20126     20125     20127     20128     20129     20128     20130
     20131     20132     20131     20133     20134     20135     20134     20136
     20137     20138     20137     20139     20140     20141     20140     20142
     20143     20144     20143     20145     20146     20147     20146     20148
     20149     20150     20149     20151     20152     20153     20152     20154
     20155     20156     20155     20157     20158     20159     20158     20160
     20161     20162     20161     20163     20164     20165     20164     20166
     20167     20168     20167     20169     20170     20171     20170     20172
     20173     20174     20173     20175     20176     20177     20176     20178
     20179     20180     20179     20181     20182     20183     20182     20184
     20185     20186     20185     20187     20188     20189     20188     20190
     20191     20192     20191     20193     20194     20195     20194     20196
     20197     20198     20197     20199     20200     20201     20200     20202
     20203     20204     20203     20205     20206     20207     20206     20208
     20209     20210     20209     20211     20212     20213     20212     20214
     20215     20216     20215     20217     20218     20219     20218     20220
     20221     20222     20221     20223     20224     20225     20224     20226
     20227     20228     20227     20229     20230     20231     20230     20232
     20233     20234     20233     20235     20236     20237     20236     20238
     20239     20240     20239     20241     20242     20243     20242     20244
     20245     20246     20245     20247     20248     20249     20248     20250
     20251     20252     20251     20253     20254     20255     20254     20256
     20257     20258     20257     20259     20260     20261     20260     20262
     20263     20264     20263     20265     20266     20267     20266     20268
     20269     20270     20269     20271     20272     20273     20272     20274
     20275     20276     20275     20277     20278     20279     20278     20280
     20281     20282     20281     20283     20284     20285     20284     20286
     20287     20288     20287     20289     20290     20291     20290     20292
     20293     20294     20293     20295     20296     20297     20296     20298
     20299     20300     20299     20301     20302     20303     20302     20304
     20305     20306     20305     20307     20308     20309     20308     20310
     20311     20312     20311     20313     20314     20315     20314     20316
     20317     20318     20317     20319     20320     20321     20320     20322
     20323     20324     20323     20325     20326     20327     20326     20328
     20329     20330     20329     20331     20332     20333     20332     20334
     20335     20336     20335     20337     20338     20339     20338     20340
     20341     20342     20341     20343     20344     20345     20344     20346
     20347     20348     20347     20349     20350     20351     20350     20352
     20353     20354     20353     20355     20356     20357     20356     20358
     20359     20360     20359     20361     20362     20363     20362     20364
     20365     20366     20365     20367     20368     20369     20368     20370
     20371     20372     20371     20373     20374     20375     20374     20376
     20377     20378     20377     20379     20380     20381     20380     20382
     20383     20384     20383     20385     20386     20387     20386     20388
     20389     20390     20389     20391     20392     20393     20392     20394
     20395     20396     20395     20397     20398     20399     20398     20400
     20401     20402     20401     20403     20404     20405     20404     20406
     20407     20408     20407     20409     20410     20411     20410     20412
     20413     20414     20413     20415     20416     20417     20416     20418
     20419     20420     20419     20421     20422     20423     20422     20424
     20425     20426     20425     20427     20428     20429     20428     20430
     20431     20432     20431     20433     20434     20435     20434     20436
     20437     20438     20437     20439     20440     20441     20440     20442
     20443     20444     20443     20445     20446     20447     20446     20448
     20449     20450     20449     20451     20452     20453     20452     20454
     20455     20456     20455     20457     20458     20459     20458     20460
     20461     20462     20461     20463     20464     20465     20464     20466
     20467     20468     20467     20469     20470     20471     20470     20472
     20473     20474     20473     20475     20476     20477     20476     20478
     20479     20480     20479     20481     20482     20483     20482     20484
     20485     20486     20485     20487     20488     20489     20488     20490
     20491     20492     20491     20493     20494     20495     20494     20496
     20497     20498     20497     20499     20500     20501     20500     20502
     20503     20504     20503     20505     20506     20507     20506     20508
     20509     20510     20509     20511     20512     20513     20512     20514
     20515     20516     20515     20517     20518     20519     20518     20520
     20521     20522     20521     20523     20524     20525     20524     20526
     20527     20528     20527     20529     20530     20531     20530     20532
     20533     20534     20533     20535     20536     20537     20536     20538
     20539     20540     20539     20541     20542     20543     20542     20544
     20545     20546     20545     20547     20548     20549     20548     20550
     20551     20552     20551     20553     20554     20555     20554     20556
     20557     20558     20557     20559     20560     20561     20560     20562
     20563     20564     20563     20565     20566     20567     20566     20568
     20569     20570     20569     20571     20572     20573     20572     20574
     20575     20576     20575     20577     20578     20579     20578     20580
     20581     20582     20581     20583     20584     20585     20584     20586
     20587     20588     20587     20589     20590     20591     20590     20592
     20593     20594     20593     20595     20596     20597     20596     20598
     20599     20600     20599     20601     20602     20603     20602     20604
     20605     20606     20605     20607     20608     20609     20608     20610
     20611     20612     20611     20613     20614     20615     20614     20616
     20617     20618     20617     20619     20620     20621     20620     20622
     20623     20624     20623     20625     20626     20627     20626     20628
     20629     20630     20629     20631     20632     20633     20632     20634
     20635     20636     20635     20637     20638     20639     20638     20640
     20641     20642     20641     20643     20644     20645     20644     20646
     20647     20648     20647     20649     20650     20651     20650     20652
     20653     20654     20653     20655     20656     20657     20656     20658
     20659     20660     20659     20661     20662     20663     20662     20664
     20665     20666     20665     20667     20668     20669     20668     20670
     20671     20672     20671     20673     20674     20675     20674     20676
     20677     20678     20677     20679     20680     20681     20680     20682
     20683     20684     20683     20685     20686     20687     20686     20688
     20689     20690     20689     20691     20692     20693     20692     20694
     20695     20696     20695     20697     20698     20699     20698     20700
     20701     20702     20701     20703     20704     20705     20704     20706
     20707     20708     20707     20709     20710     20711     20710     20712
     20713     20714     20713     20715     20716     20717     20716     20718
     20719     20720     20719     20721     20722     20723     20722     20724
     20725     20726     20725     20727     20728     20729     20728     20730
     20731     20732     20731     20733     20734     20735     20734     20736
     20737     20738     20737     20739     20740     20741     20740     20742
     20743     20744     20743     20745     20746     20747     20746     20748
     20749     20750     20749     20751     20752     20753     20752     20754
     20755     20756     20755     20757     20758     20759     20758     20760
     20761     20762     20761     20763     20764     20765     20764     20766
     20767     20768     20767     20769     20770     20771     20770     20772
     20773     20774     20773     20775     20776     20777     20776     20778
     20779     20780     20779     20781     20782     20783     20782     20784
     20785     20786     20785     20787     20788     20789     20788     20790
     20791     20792     20791     20793     20794     20795     20794     20796
     20797     20798     20797     20799     20800     20801     20800     20802
     20803     20804     20803     20805     20806     20807     20806     20808
     20809     20810     20809     20811     20812     20813     20812     20814
     20815     20816     20815     20817     20818     20819     20818     20820
     20821     20822     20821     20823     20824     20825     20824     20826
     20827     20828     20827     20829     20830     20831     20830     20832
     20833     20834     20833     20835     20836     20837     20836     20838
     20839     20840     20839     20841     20842     20843     20842     20844
     20845     20846     20845     20847     20848     20849     20848     20850
     20851     20852     20851     20853     20854     20855     20854     20856
     20857     20858     20857     20859     20860     20861     20860     20862
     20863     20864     20863     20865     20866     20867     20866     20868
     20869     20870     20869     20871     20872     20873     20872     20874
     20875     20876     20875     20877     20878     20879     20878     20880
     20881     20882     20881     20883     20884     20885     20884     20886
     20887     20888     20887     20889     20890     20891     20890     20892
     20893     20894     20893     20895     20896     20897     20896     20898
     20899     20900     20899     20901     20902     20903     20902     20904
     20905     20906     20905     20907     20908     20909     20908     20910
     20911     20912     20911     20913     20914     20915     20914     20916
     20917     20918     20917     20919     20920     20921     20920     20922
     20923     20924     20923     20925     20926     20927     20926     20928
     20929     20930     20929     20931     20932     20933     20932     20934
     20935     20936     20935     20937     20938     20939     20938     20940
     20941     20942     20941     20943     20944     20945     20944     20946
     20947     20948     20947     20949     20950     20951     20950     20952
     20953     20954     20953     20955     20956     20957     20956     20958
     20959     20960     20959     20961     20962     20963     20962     20964
     20965     20966     20965     20967     20968     20969     20968     20970
     20971     20972     20971     20973     20974     20975     20974     20976
     20977     20978     20977     20979     20980     20981     20980     20982
     20983     20984     20983     20985     20986     20987     20986     20988
     20989     20990     20989     20991     20992     20993     20992     20994
     20995     20996     20995     20997     20998     20999     20998     21000
     21001     21002     21001     21003     21004     21005     21004     21006
     21007     21008     21007     21009     21010     21011     21010     21012
     21013     21014     21013     21015     21016     21017     21016     21018
     21019     21020     21019     21021     21022     21023     21022     21024
     21025     21026     21025     21027     21028     21029     21028     21030
     21031     21032     21031     21033     21034     21035     21034     21036
     21037     21038     21037     21039     21040     21041     21040     21042
     21043     21044     21043     21045     21046     21047     21046     21048
     21049     21050     21049     21051     21052     21053     21052     21054
     21055     21056     21055     21057     21058     21059     21058     21060
     21061     21062     21061     21063     21064     21065     21064     21066
     21067     21068     21067     21069     21070     21071     21070     21072
     21073     21074     21073     21075     21076     21077     21076     21078
     21079     21080     21079     21081     21082     21083     21082     21084
     21085     21086     21085     21087     21088     21089     21088     21090
     21091     21092     21091     21093     21094     21095     21094     21096
     21097     21098     21097     21099     21100     21101     21100     21102
     21103     21104     21103     21105     21106     21107     21106     21108
     21109     21110     21109     21111     21112     21113     21112     21114
     21115     21116     21115     21117     21118     21119     21118     21120
     21121     21122     21121     21123     21124     21125     21124     21126
     21127     21128     21127     21129     21130     21131     21130     21132
     21133     21134     21133     21135     21136     21137     21136     21138
     21139     21140     21139     21141     21142     21143     21142     21144
     21145     21146     21145     21147     21148     21149     21148     21150
     21151     21152     21151     21153     21154     21155     21154     21156
     21157     21158     21157     21159     21160     21161     21160     21162
     21163     21164     21163     21165     21166     21167     21166     21168
     21169     21170     21169     21171     21172     21173     21172     21174
     21175     21176     21175     21177     21178     21179     21178     21180
     21181     21182     21181     21183     21184     21185     21184     21186
     21187     21188     21187     21189     21190     21191     21190     21192
     21193     21194     21193     21195     21196     21197     21196     21198
     21199     21200     21199     21201     21202     21203     21202     21204
     21205     21206     21205     21207     21208     21209     21208     21210
     21211     21212     21211     21213     21214     21215     21214     21216
     21217     21218     21217     21219     21220     21221     21220     21222
     21223     21224     21223     21225     21226     21227     21226     21228
     21229     21230     21229     21231     21232     21233     21232     21234
     21235     21236     21235     21237     21238     21239     21238     21240
     21241     21242     21241     21243     21244     21245     21244     21246
     21247     21248     21247     21249     21250     21251     21250     21252
     21253     21254     21253     21255     21256     21257     21256     21258
     21259     21260     21259     21261     21262     21263     21262     21264
     21265     21266     21265     21267     21268     21269     21268     21270
     21271     21272     21271     21273     21274     21275     21274     21276
     21277     21278     21277     21279     21280     21281     21280     21282
     21283     21284     21283     21285     21286     21287     21286     21288
     21289     21290     21289     21291     21292     21293     21292     21294
     21295     21296     21295     21297     21298     21299     21298     21300
     21301     21302     21301     21303     21304     21305     21304     21306
     21307     21308     21307     21309     21310     21311     21310     21312
     21313     21314     21313     21315     21316     21317     21316     21318
     21319     21320     21319     21321     21322     21323     21322     21324
     21325     21326     21325     21327     21328     21329     21328     21330
     21331     21332     21331     21333     21334     21335     21334     21336
     21337     21338     21337     21339     21340     21341     21340     21342
     21343     21344     21343     21345     21346     21347     21346     21348
     21349     21350     21349     21351     21352     21353     21352     21354
     21355     21356     21355     21357     21358     21359     21358     21360
     21361     21362     21361     21363     21364     21365     21364     21366
     21367     21368     21367     21369     21370     21371     21370     21372
     21373     21374     21373     21375     21376     21377     21376     21378
     21379     21380     21379     21381     21382     21383     21382     21384
     21385     21386     21385     21387     21388     21389     21388     21390
     21391     21392     21391     21393     21394     21395     21394     21396
     21397     21398     21397     21399     21400     21401     21400     21402
     21403     21404     21403     21405     21406     21407     21406     21408
     21409     21410     21409     21411     21412     21413     21412     21414
     21415     21416     21415     21417     21418     21419     21418     21420
     21421     21422     21421     21423     21424     21425     21424     21426
     21427     21428     21427     21429     21430     21431     21430     21432
     21433     21434     21433     21435     21436     21437     21436     21438
     21439     21440     21439     21441     21442     21443     21442     21444
     21445     21446     21445     21447     21448     21449     21448     21450
     21451     21452     21451     21453     21454     21455     21454     21456
     21457     21458     21457     21459     21460     21461     21460     21462
     21463     21464     21463     21465     21466     21467     21466     21468
     21469     21470     21469     21471     21472     21473     21472     21474
     21475     21476     21475     21477     21478     21479     21478     21480
     21481     21482     21481     21483     21484     21485     21484     21486
     21487     21488     21487     21489     21490     21491     21490     21492
     21493     21494     21493     21495     21496     21497     21496     21498
     21499     21500     21499     21501     21502     21503     21502     21504
     21505     21506     21505     21507     21508     21509     21508     21510
     21511     21512     21511     21513     21514     21515     21514     21516
     21517     21518     21517     21519     21520     21521     21520     21522
     21523     21524     21523     21525     21526     21527     21526     21528
     21529     21530     21529     21531     21532     21533     21532     21534
     21535     21536     21535     21537     21538     21539     21538     21540
     21541     21542     21541     21543     21544     21545     21544     21546
     21547     21548     21547     21549     21550     21551     21550     21552
     21553     21554     21553     21555     21556     21557     21556     21558
     21559     21560     21559     21561     21562     21563     21562     21564
     21565     21566     21565     21567     21568     21569     21568     21570
     21571     21572     21571     21573     21574     21575     21574     21576
     21577     21578     21577     21579     21580     21581     21580     21582
     21583     21584     21583     21585     21586     21587     21586     21588
     21589     21590     21589     21591     21592     21593     21592     21594
     21595     21596     21595     21597     21598     21599     21598     21600
     21601     21602     21601     21603     21604     21605     21604     21606
     21607     21608     21607     21609     21610     21611     21610     21612
     21613     21614     21613     21615     21616     21617     21616     21618
     21619     21620     21619     21621     21622     21623     21622     21624
     21625     21626     21625     21627     21628     21629     21628     21630
     21631     21632     21631     21633     21634     21635     21634     21636
     21637     21638     21637     21639     21640     21641     21640     21642
     21643     21644     21643     21645     21646     21647     21646     21648
     21649     21650     21649     21651     21652     21653     21652     21654
     21655     21656     21655     21657     21658     21659     21658     21660
     21661     21662     21661     21663     21664     21665     21664     21666
     21667     21668     21667     21669     21670     21671     21670     21672
     21673     21674     21673     21675     21676     21677     21676     21678
     21679     21680     21679     21681     21682     21683     21682     21684
     21685     21686     21685     21687     21688     21689     21688     21690
     21691     21692     21691     21693     21694     21695     21694     21696
     21697     21698     21697     21699     21700     21701     21700     21702
     21703     21704     21703     21705     21706     21707     21706     21708
     21709     21710     21709     21711     21712     21713     21712     21714
     21715     21716     21715     21717     21718     21719     21718     21720
     21721     21722     21721     21723     21724     21725     21724     21726
     21727     21728     21727     21729     21730     21731     21730     21732
     21733     21734     21733     21735     21736     21737     21736     21738
     21739     21740     21739     21741     21742     21743     21742     21744
     21745     21746     21745     21747     21748     21749     21748     21750
     21751     21752     21751     21753     21754     21755     21754     21756
     21757     21758     21757     21759     21760     21761     21760     21762
     21763     21764     21763     21765     21766     21767     21766     21768
     21769     21770     21769     21771     21772     21773     21772     21774
     21775     21776     21775     21777     21778     21779     21778     21780
     21781     21782     21781     21783     21784     21785     21784     21786
     21787     21788     21787     21789     21790     21791     21790     21792
     21793     21794     21793     21795     21796     21797     21796     21798
     21799     21800     21799     21801     21802     21803     21802     21804
     21805     21806     21805     21807     21808     21809     21808     21810
     21811     21812     21811     21813     21814     21815     21814     21816
     21817     21818     21817     21819     21820     21821     21820     21822
     21823     21824     21823     21825     21826     21827     21826     21828
     21829     21830     21829     21831     21832     21833     21832     21834
     21835     21836     21835     21837     21838     21839     21838     21840
     21841     21842     21841     21843     21844     21845     21844     21846
     21847     21848     21847     21849     21850     21851     21850     21852
     21853     21854     21853     21855     21856     21857     21856     21858
     21859     21860     21859     21861     21862     21863     21862     21864
     21865     21866     21865     21867     21868     21869     21868     21870
     21871     21872     21871     21873     21874     21875     21874     21876
     21877     21878     21877     21879     21880     21881     21880     21882
     21883     21884     21883     21885     21886     21887     21886     21888
     21889     21890     21889     21891     21892     21893     21892     21894
     21895     21896     21895     21897     21898     21899     21898     21900
     21901     21902     21901     21903     21904     21905     21904     21906
     21907     21908     21907     21909     21910     21911     21910     21912
     21913     21914     21913     21915     21916     21917     21916     21918
     21919     21920     21919     21921     21922     21923     21922     21924
     21925     21926     21925     21927     21928     21929     21928     21930
     21931     21932     21931     21933     21934     21935     21934     21936
     21937     21938     21937     21939     21940     21941     21940     21942
     21943     21944     21943     21945     21946     21947     21946     21948
     21949     21950     21949     21951     21952     21953     21952     21954
     21955     21956     21955     21957     21958     21959     21958     21960
     21961     21962     21961     21963     21964     21965     21964     21966
     21967     21968     21967     21969     21970     21971     21970     21972
     21973     21974     21973     21975     21976     21977     21976     21978
     21979     21980     21979     21981     21982     21983     21982     21984
     21985     21986     21985     21987     21988     21989     21988     21990
     21991     21992     21991     21993     21994     21995     21994     21996
     21997     21998     21997     21999     22000     22001     22000     22002
     22003     22004     22003     22005     22006     22007     22006     22008
     22009     22010     22009     22011     22012     22013     22012     22014
     22015     22016     22015     22017     22018     22019     22018     22020
     22021     22022     22021     22023     22024     22025     22024     22026
     22027     22028     22027     22029     22030     22031     22030     22032
     22033     22034     22033     22035     22036     22037     22036     22038
     22039     22040     22039     22041     22042     22043     22042     22044
     22045     22046     22045     22047     22048     22049     22048     22050
     22051     22052     22051     22053     22054     22055     22054     22056
     22057     22058     22057     22059     22060     22061     22060     22062
     22063     22064     22063     22065     22066     22067     22066     22068
     22069     22070     22069     22071     22072     22073     22072     22074
     22075     22076     22075     22077     22078     22079     22078     22080
     22081     22082     22081     22083     22084     22085     22084     22086
     22087     22088     22087     22089     22090     22091     22090     22092
     22093     22094     22093     22095     22096     22097     22096     22098
     22099     22100     22099     22101     22102     22103     22102     22104
     22105     22106     22105     22107     22108     22109     22108     22110
     22111     22112     22111     22113     22114     22115     22114     22116
     22117     22118     22117     22119     22120     22121     22120     22122
     22123     22124     22123     22125     22126     22127     22126     22128
     22129     22130     22129     22131     22132     22133     22132     22134
     22135     22136     22135     22137     22138     22139     22138     22140
     22141     22142     22141     22143     22144     22145     22144     22146
     22147     22148     22147     22149     22150     22151     22150     22152
     22153     22154     22153     22155     22156     22157     22156     22158
     22159     22160     22159     22161     22162     22163     22162     22164
     22165     22166     22165     22167     22168     22169     22168     22170
     22171     22172     22171     22173     22174     22175     22174     22176
     22177     22178     22177     22179     22180     22181     22180     22182
     22183     22184     22183     22185     22186     22187     22186     22188
     22189     22190     22189     22191     22192     22193     22192     22194
     22195     22196     22195     22197     22198     22199     22198     22200
     22201     22202     22201     22203     22204     22205     22204     22206
     22207     22208     22207     22209     22210     22211     22210     22212
     22213     22214     22213     22215     22216     22217     22216     22218
     22219     22220     22219     22221     22222     22223     22222     22224
     22225     22226     22225     22227     22228     22229     22228     22230
     22231     22232     22231     22233     22234     22235     22234     22236
     22237     22238     22237     22239     22240     22241     22240     22242
     22243     22244     22243     22245     22246     22247     22246     22248
     22249     22250     22249     22251     22252     22253     22252     22254
     22255     22256     22255     22257     22258     22259     22258     22260
     22261     22262     22261     22263     22264     22265     22264     22266
     22267     22268     22267     22269     22270     22271     22270     22272
     22273     22274     22273     22275     22276     22277     22276     22278
     22279     22280     22279     22281     22282     22283     22282     22284
     22285     22286     22285     22287     22288     22289     22288     22290
     22291     22292     22291     22293     22294     22295     22294     22296
     22297     22298     22297     22299     22300     22301     22300     22302
     22303     22304     22303     22305     22306     22307     22306     22308
     22309     22310     22309     22311     22312     22313     22312     22314
     22315     22316     22315     22317     22318     22319     22318     22320
     22321     22322     22321     22323     22324     22325     22324     22326
     22327     22328     22327     22329     22330     22331     22330     22332
     22333     22334     22333     22335     22336     22337     22336     22338
     22339     22340     22339     22341     22342     22343     22342     22344
     22345     22346     22345     22347     22348     22349     22348     22350
     22351     22352     22351     22353     22354     22355     22354     22356
     22357     22358     22357     22359     22360     22361     22360     22362
     22363     22364     22363     22365     22366     22367     22366     22368
     22369     22370     22369     22371     22372     22373     22372     22374
     22375     22376     22375     22377     22378     22379     22378     22380
     22381     22382     22381     22383     22384     22385     22384     22386
     22387     22388     22387     22389     22390     22391     22390     22392
     22393     22394     22393     22395     22396     22397     22396     22398
     22399     22400     22399     22401     22402     22403     22402     22404
     22405     22406     22405     22407     22408     22409     22408     22410
     22411     22412     22411     22413     22414     22415     22414     22416
     22417     22418     22417     22419     22420     22421     22420     22422
     22423     22424     22423     22425     22426     22427     22426     22428
     22429     22430     22429     22431     22432     22433     22432     22434
     22435     22436     22435     22437     22438     22439     22438     22440
     22441     22442     22441     22443     22444     22445     22444     22446
     22447     22448     22447     22449     22450     22451     22450     22452
     22453     22454     22453     22455     22456     22457     22456     22458
     22459     22460     22459     22461     22462     22463     22462     22464
     22465     22466     22465     22467     22468     22469     22468     22470
     22471     22472     22471     22473     22474     22475     22474     22476
     22477     22478     22477     22479     22480     22481     22480     22482
     22483     22484     22483     22485     22486     22487     22486     22488
     22489     22490     22489     22491     22492     22493     22492     22494
     22495     22496     22495     22497     22498     22499     22498     22500
     22501     22502     22501     22503     22504     22505     22504     22506
     22507     22508     22507     22509     22510     22511     22510     22512
     22513     22514     22513     22515     22516     22517     22516     22518
     22519     22520     22519     22521     22522     22523     22522     22524
     22525     22526     22525     22527     22528     22529     22528     22530
     22531     22532     22531     22533     22534     22535     22534     22536
     22537     22538     22537     22539     22540     22541     22540     22542
     22543     22544     22543     22545     22546     22547     22546     22548
     22549     22550     22549     22551     22552     22553     22552     22554
     22555     22556     22555     22557     22558     22559     22558     22560
     22561     22562     22561     22563     22564     22565     22564     22566
     22567     22568     22567     22569     22570     22571     22570     22572
     22573     22574     22573     22575     22576     22577     22576     22578
     22579     22580     22579     22581     22582     22583     22582     22584
     22585     22586     22585     22587     22588     22589     22588     22590
     22591     22592     22591     22593     22594     22595     22594     22596
     22597     22598     22597     22599     22600     22601     22600     22602
     22603     22604     22603     22605     22606     22607     22606     22608
     22609     22610     22609     22611     22612     22613     22612     22614
     22615     22616     22615     22617     22618     22619     22618     22620
     22621     22622     22621     22623     22624     22625     22624     22626
     22627     22628     22627     22629     22630     22631     22630     22632
     22633     22634     22633     22635     22636     22637     22636     22638
     22639     22640     22639     22641     22642     22643     22642     22644
     22645     22646     22645     22647     22648     22649     22648     22650
     22651     22652     22651     22653     22654     22655     22654     22656
     22657     22658     22657     22659     22660     22661     22660     22662
     22663     22664     22663     22665     22666     22667     22666     22668
     22669     22670     22669     22671     22672     22673     22672     22674
     22675     22676     22675     22677     22678     22679     22678     22680
     22681     22682     22681     22683     22684     22685     22684     22686
     22687     22688     22687     22689     22690     22691     22690     22692
     22693     22694     22693     22695     22696     22697     22696     22698
     22699     22700     22699     22701     22702     22703     22702     22704
     22705     22706     22705     22707     22708     22709     22708     22710
     22711     22712     22711     22713     22714     22715     22714     22716
     22717     22718     22717     22719     22720     22721     22720     22722
     22723     22724     22723     22725     22726     22727     22726     22728
     22729     22730     22729     22731     22732     22733     22732     22734
     22735     22736     22735     22737     22738     22739     22738     22740
     22741     22742     22741     22743     22744     22745     22744     22746
     22747     22748     22747     22749     22750     22751     22750     22752
     22753     22754     22753     22755     22756     22757     22756     22758
     22759     22760     22759     22761     22762     22763     22762     22764
     22765     22766     22765     22767     22768     22769     22768     22770
     22771     22772     22771     22773     22774     22775     22774     22776
     22777     22778     22777     22779     22780     22781     22780     22782
     22783     22784     22783     22785     22786     22787     22786     22788
     22789     22790     22789     22791     22792     22793     22792     22794
     22795     22796     22795     22797     22798     22799     22798     22800
     22801     22802     22801     22803     22804     22805     22804     22806
     22807     22808     22807     22809     22810     22811     22810     22812
     22813     22814     22813     22815     22816     22817     22816     22818
     22819     22820     22819     22821     22822     22823     22822     22824
     22825     22826     22825     22827     22828     22829     22828     22830
     22831     22832     22831     22833     22834     22835     22834     22836
     22837     22838     22837     22839     22840     22841     22840     22842
     22843     22844     22843     22845     22846     22847     22846     22848
     22849     22850     22849     22851     22852     22853     22852     22854
     22855     22856     22855     22857     22858     22859     22858     22860
     22861     22862     22861     22863     22864     22865     22864     22866
     22867     22868     22867     22869     22870     22871     22870     22872
     22873     22874     22873     22875     22876     22877     22876     22878
     22879     22880     22879     22881     22882     22883     22882     22884
     22885     22886     22885     22887     22888     22889     22888     22890
     22891     22892     22891     22893     22894     22895     22894     22896
     22897     22898     22897     22899     22900     22901     22900     22902
     22903     22904     22903     22905     22906     22907     22906     22908
     22909     22910     22909     22911     22912     22913     22912     22914
     22915     22916     22915     22917     22918     22919     22918     22920
     22921     22922     22921     22923     22924     22925     22924     22926
     22927     22928     22927     22929     22930     22931     22930     22932
     22933     22934     22933     22935     22936     22937     22936     22938
     22939     22940     22939     22941     22942     22943     22942     22944
     22945     22946     22945     22947     22948     22949     22948     22950
     22951     22952     22951     22953     22954     22955     22954     22956
     22957     22958     22957     22959     22960     22961     22960     22962
     22963     22964     22963     22965     22966     22967     22966     22968
     22969     22970     22969     22971     22972     22973     22972     22974
     22975     22976     22975     22977     22978     22979     22978     22980
     22981     22982     22981     22983     22984     22985     22984     22986
     22987     22988     22987     22989     22990     22991     22990     22992
     22993     22994     22993     22995     22996     22997     22996     22998
     22999     23000     22999     23001     23002     23003     23002     23004
     23005     23006     23005     23007     23008     23009     23008     23010
     23011     23012     23011     23013     23014     23015     23014     23016
     23017     23018     23017     23019     23020     23021     23020     23022
     23023     23024     23023     23025     23026     23027     23026     23028
     23029     23030     23029     23031     23032     23033     23032     23034
     23035     23036     23035     23037     23038     23039     23038     23040
     23041     23042     23041     23043     23044     23045     23044     23046
     23047     23048     23047     23049     23050     23051     23050     23052
     23053     23054     23053     23055     23056     23057     23056     23058
     23059     23060     23059     23061     23062     23063     23062     23064
     23065     23066     23065     23067     23068     23069     23068     23070
     23071     23072     23071     23073     23074     23075     23074     23076
     23077     23078     23077     23079     23080     23081     23080     23082
     23083     23084     23083     23085     23086     23087     23086     23088
     23089     23090     23089     23091     23092     23093     23092     23094
     23095     23096     23095     23097     23098     23099     23098     23100
     23101     23102     23101     23103     23104     23105     23104     23106
     23107     23108     23107     23109     23110     23111     23110     23112
     23113     23114     23113     23115     23116     23117     23116     23118
     23119     23120     23119     23121     23122     23123     23122     23124
     23125     23126     23125     23127     23128     23129     23128     23130
     23131     23132     23131     23133     23134     23135     23134     23136
     23137     23138     23137     23139     23140     23141     23140     23142
     23143     23144     23143     23145     23146     23147     23146     23148
     23149     23150     23149     23151     23152     23153     23152     23154
     23155     23156     23155     23157     23158     23159     23158     23160
     23161     23162     23161     23163     23164     23165     23164     23166
     23167     23168     23167     23169     23170     23171     23170     23172
     23173     23174     23173     23175     23176     23177     23176     23178
     23179     23180     23179     23181     23182     23183     23182     23184
     23185     23186     23185     23187     23188     23189     23188     23190
     23191     23192     23191     23193     23194     23195     23194     23196
     23197     23198     23197     23199     23200     23201     23200     23202
     23203     23204     23203     23205     23206     23207     23206     23208
     23209     23210     23209     23211     23212     23213     23212     23214
     23215     23216     23215     23217     23218     23219     23218     23220
     23221     23222     23221     23223     23224     23225     23224     23226
     23227     23228     23227     23229     23230     23231     23230     23232
     23233     23234     23233     23235     23236     23237     23236     23238
     23239     23240     23239     23241     23242     23243     23242     23244
     23245     23246     23245     23247     23248     23249     23248     23250
     23251     23252     23251     23253     23254     23255     23254     23256
     23257     23258     23257     23259     23260     23261     23260     23262
     23263     23264     23263     23265     23266     23267     23266     23268
     23269     23270     23269     23271     23272     23273     23272     23274
     23275     23276     23275     23277     23278     23279     23278     23280
     23281     23282     23281     23283     23284     23285     23284     23286
     23287     23288     23287     23289     23290     23291     23290     23292
     23293     23294     23293     23295     23296     23297     23296     23298
     23299     23300     23299     23301     23302     23303     23302     23304
     23305     23306     23305     23307     23308     23309     23308     23310
     23311     23312     23311     23313     23314     23315     23314     23316
     23317     23318     23317     23319     23320     23321     23320     23322
     23323     23324     23323     23325     23326     23327     23326     23328
     23329     23330     23329     23331     23332     23333     23332     23334
     23335     23336     23335     23337     23338     23339     23338     23340
     23341     23342     23341     23343     23344     23345     23344     23346
     23347     23348     23347     23349     23350     23351     23350     23352
     23353     23354     23353     23355     23356     23357     23356     23358
     23359     23360     23359     23361     23362     23363     23362     23364
     23365     23366     23365     23367     23368     23369     23368     23370
     23371     23372     23371     23373     23374     23375     23374     23376
     23377     23378     23377     23379     23380     23381     23380     23382
     23383     23384     23383     23385     23386     23387     23386     23388
     23389     23390     23389     23391     23392     23393     23392     23394
     23395     23396     23395     23397     23398     23399     23398     23400
     23401     23402     23401     23403     23404     23405     23404     23406
     23407     23408     23407     23409     23410     23411     23410     23412
     23413     23414     23413     23415     23416     23417     23416     23418
     23419     23420     23419     23421     23422     23423     23422     23424
     23425     23426     23425     23427     23428     23429     23428     23430
     23431     23432     23431     23433     23434     23435     23434     23436
     23437     23438     23437     23439     23440     23441     23440     23442
     23443     23444     23443     23445     23446     23447     23446     23448
     23449     23450     23449     23451     23452     23453     23452     23454
     23455     23456     23455     23457     23458     23459     23458     23460
     23461     23462     23461     23463     23464     23465     23464     23466
     23467     23468     23467     23469     23470     23471     23470     23472
     23473     23474     23473     23475     23476     23477     23476     23478
     23479     23480     23479     23481     23482     23483     23482     23484
     23485     23486     23485     23487     23488     23489     23488     23490
     23491     23492     23491     23493     23494     23495     23494     23496
     23497     23498     23497     23499     23500     23501     23500     23502
     23503     23504     23503     23505     23506     23507     23506     23508
     23509     23510     23509     23511     23512     23513     23512     23514
     23515     23516     23515     23517     23518     23519     23518     23520
     23521     23522     23521     23523     23524     23525     23524     23526
     23527     23528     23527     23529     23530     23531     23530     23532
     23533     23534     23533     23535     23536     23537     23536     23538
     23539     23540     23539     23541     23542     23543     23542     23544
     23545     23546     23545     23547     23548     23549     23548     23550
     23551     23552     23551     23553     23554     23555     23554     23556
     23557     23558     23557     23559     23560     23561     23560     23562
     23563     23564     23563     23565     23566     23567     23566     23568
     23569     23570     23569     23571     23572     23573     23572     23574
     23575     23576     23575     23577     23578     23579     23578     23580
     23581     23582     23581     23583     23584     23585     23584     23586
     23587     23588     23587     23589     23590     23591     23590     23592
     23593     23594     23593     23595     23596     23597     23596     23598
     23599     23600     23599     23601     23602     23603     23602     23604
     23605     23606     23605     23607     23608     23609     23608     23610
     23611     23612     23611     23613     23614     23615     23614     23616
     23617     23618     23617     23619     23620     23621     23620     23622
     23623     23624     23623     23625     23626     23627     23626     23628
     23629     23630     23629     23631     23632     23633     23632     23634
     23635     23636     23635     23637     23638     23639     23638     23640
     23641     23642     23641     23643     23644     23645     23644     23646
     23647     23648     23647     23649     23650     23651     23650     23652
     23653     23654     23653     23655     23656     23657     23656     23658
     23659     23660     23659     23661     23662     23663     23662     23664
     23665     23666     23665     23667     23668     23669     23668     23670
     23671     23672     23671     23673     23674     23675     23674     23676
     23677     23678     23677     23679     23680     23681     23680     23682
     23683     23684     23683     23685     23686     23687     23686     23688
     23689     23690     23689     23691     23692     23693     23692     23694
     23695     23696     23695     23697     23698     23699     23698     23700
     23701     23702     23701     23703     23704     23705     23704     23706
     23707     23708     23707     23709     23710     23711     23710     23712
     23713     23714     23713     23715     23716     23717     23716     23718
     23719     23720     23719     23721     23722     23723     23722     23724
     23725     23726     23725     23727     23728     23729     23728     23730
     23731     23732     23731     23733     23734     23735     23734     23736
     23737     23738     23737     23739     23740     23741     23740     23742
     23743     23744     23743     23745     23746     23747     23746     23748
     23749     23750     23749     23751     23752     23753     23752     23754
     23755     23756     23755     23757     23758     23759     23758     23760
     23761     23762     23761     23763     23764     23765     23764     23766
     23767     23768     23767     23769     23770     23771     23770     23772
     23773     23774     23773     23775     23776     23777     23776     23778
     23779     23780     23779     23781     23782     23783     23782     23784
     23785     23786     23785     23787     23788     23789     23788     23790
     23791     23792     23791     23793     23794     23795     23794     23796
     23797     23798     23797     23799     23800     23801     23800     23802
     23803     23804     23803     23805     23806     23807     23806     23808
     23809     23810     23809     23811     23812     23813     23812     23814
     23815     23816     23815     23817     23818     23819     23818     23820
     23821     23822     23821     23823     23824     23825     23824     23826
     23827     23828     23827     23829     23830     23831     23830     23832
     23833     23834     23833     23835     23836     23837     23836     23838
     23839     23840     23839     23841     23842     23843     23842     23844
     23845     23846     23845     23847     23848     23849     23848     23850
     23851     23852     23851     23853     23854     23855     23854     23856
     23857     23858     23857     23859     23860     23861     23860     23862
     23863     23864     23863     23865     23866     23867     23866     23868
     23869     23870     23869     23871     23872     23873     23872     23874
     23875     23876     23875     23877     23878     23879     23878     23880
     23881     23882     23881     23883     23884     23885     23884     23886
     23887     23888     23887     23889     23890     23891     23890     23892
     23893     23894     23893     23895     23896     23897     23896     23898
     23899     23900     23899     23901     23902     23903     23902     23904
     23905     23906     23905     23907     23908     23909     23908     23910
     23911     23912     23911     23913     23914     23915     23914     23916
     23917     23918     23917     23919     23920     23921     23920     23922
     23923     23924     23923     23925     23926     23927     23926     23928
     23929     23930     23929     23931     23932     23933     23932     23934
     23935     23936     23935     23937     23938     23939     23938     23940
     23941     23942     23941     23943     23944     23945     23944     23946
     23947     23948     23947     23949     23950     23951     23950     23952
     23953     23954     23953     23955     23956     23957     23956     23958
     23959     23960     23959     23961     23962     23963     23962     23964
     23965     23966     23965     23967     23968     23969     23968     23970
     23971     23972     23971     23973     23974     23975     23974     23976
     23977     23978     23977     23979     23980     23981     23980     23982
     23983     23984     23983     23985     23986     23987     23986     23988
     23989     23990     23989     23991     23992     23993     23992     23994
     23995     23996     23995     23997     23998     23999     23998     24000
     24001     24002     24001     24003     24004     24005     24004     24006
     24007     24008     24007     24009     24010     24011     24010     24012
     24013     24014     24013     24015     24016     24017     24016     24018
     24019     24020     24019     24021     24022     24023     24022     24024
     24025     24026     24025     24027     24028     24029     24028     24030
     24031     24032     24031     24033     24034     24035     24034     24036
     24037     24038     24037     24039     24040     24041     24040     24042
     24043     24044     24043     24045     24046     24047     24046     24048
     24049     24050     24049     24051     24052     24053     24052     24054
     24055     24056     24055     24057     24058     24059     24058     24060
     24061     24062     24061     24063     24064     24065     24064     24066
     24067     24068     24067     24069     24070     24071     24070     24072
     24073     24074     24073     24075     24076     24077     24076     24078
     24079     24080     24079     24081     24082     24083     24082     24084
     24085     24086     24085     24087     24088     24089     24088     24090
     24091     24092     24091     24093     24094     24095     24094     24096
     24097     24098     24097     24099     24100     24101     24100     24102
     24103     24104     24103     24105     24106     24107     24106     24108
     24109     24110     24109     24111     24112     24113     24112     24114
     24115     24116     24115     24117     24118     24119     24118     24120
     24121     24122     24121     24123     24124     24125     24124     24126
     24127     24128     24127     24129     24130     24131     24130     24132
     24133     24134     24133     24135     24136     24137     24136     24138
     24139     24140     24139     24141     24142     24143     24142     24144
     24145     24146     24145     24147     24148     24149     24148     24150
     24151     24152     24151     24153     24154     24155     24154     24156
     24157     24158     24157     24159     24160     24161     24160     24162
     24163     24164     24163     24165     24166     24167     24166     24168
     24169     24170     24169     24171     24172     24173     24172     24174
     24175     24176     24175     24177     24178     24179     24178     24180
     24181     24182     24181     24183     24184     24185     24184     24186
     24187     24188     24187     24189     24190     24191     24190     24192
     24193     24194     24193     24195     24196     24197     24196     24198
     24199     24200     24199     24201     24202     24203     24202     24204
     24205     24206     24205     24207     24208     24209     24208     24210
     24211     24212     24211     24213     24214     24215     24214     24216
     24217     24218     24217     24219     24220     24221     24220     24222
     24223     24224     24223     24225     24226     24227     24226     24228
     24229     24230     24229     24231     24232     24233     24232     24234
     24235     24236     24235     24237     24238     24239     24238     24240
     24241     24242     24241     24243     24244     24245     24244     24246
     24247     24248     24247     24249     24250     24251     24250     24252
     24253     24254     24253     24255     24256     24257     24256     24258
     24259     24260     24259     24261     24262     24263     24262     24264
     24265     24266     24265     24267     24268     24269     24268     24270
     24271     24272     24271     24273     24274     24275     24274     24276
     24277     24278     24277     24279     24280     24281     24280     24282
     24283     24284     24283     24285     24286     24287     24286     24288
     24289     24290     24289     24291     24292     24293     24292     24294
     24295     24296     24295     24297     24298     24299     24298     24300
     24301     24302     24301     24303     24304     24305     24304     24306
     24307     24308     24307     24309     24310     24311     24310     24312
     24313     24314     24313     24315     24316     24317     24316     24318
     24319     24320     24319     24321     24322     24323     24322     24324
     24325     24326     24325     24327     24328     24329     24328     24330
     24331     24332     24331     24333     24334     24335     24334     24336
     24337     24338     24337     24339     24340     24341     24340     24342
     24343     24344     24343     24345     24346     24347     24346     24348
     24349     24350     24349     24351     24352     24353     24352     24354
     24355     24356     24355     24357     24358     24359     24358     24360
     24361     24362     24361     24363     24364     24365     24364     24366
     24367     24368     24367     24369     24370     24371     24370     24372
     24373     24374     24373     24375     24376     24377     24376     24378
     24379     24380     24379     24381     24382     24383     24382     24384
     24385     24386     24385     24387     24388     24389     24388     24390
     24391     24392     24391     24393     24394     24395     24394     24396
     24397     24398     24397     24399     24400     24401     24400     24402
     24403     24404     24403     24405     24406     24407     24406     24408
     24409     24410     24409     24411     24412     24413     24412     24414
     24415     24416     24415     24417     24418     24419     24418     24420
     24421     24422     24421     24423     24424     24425     24424     24426
     24427     24428     24427     24429     24430     24431     24430     24432
     24433     24434     24433     24435     24436     24437     24436     24438
     24439     24440     24439     24441     24442     24443     24442     24444
     24445     24446     24445     24447     24448     24449     24448     24450
     24451     24452     24451     24453     24454     24455     24454     24456
     24457     24458     24457     24459     24460     24461     24460     24462
     24463     24464     24463     24465     24466     24467     24466     24468
     24469     24470     24469     24471     24472     24473     24472     24474
     24475     24476     24475     24477     24478     24479     24478     24480
     24481     24482     24481     24483     24484     24485     24484     24486
     24487     24488     24487     24489     24490     24491     24490     24492
     24493     24494     24493     24495     24496     24497     24496     24498
     24499     24500     24499     24501     24502     24503     24502     24504
     24505     24506     24505     24507     24508     24509     24508     24510
     24511     24512     24511     24513     24514     24515     24514     24516
     24517     24518     24517     24519     24520     24521     24520     24522
     24523     24524     24523     24525     24526     24527     24526     24528
     24529     24530     24529     24531     24532     24533     24532     24534
     24535     24536     24535     24537     24538     24539     24538     24540
     24541     24542     24541     24543     24544     24545     24544     24546
     24547     24548     24547     24549     24550     24551     24550     24552
     24553     24554     24553     24555     24556     24557     24556     24558
     24559     24560     24559     24561     24562     24563     24562     24564
     24565     24566     24565     24567     24568     24569     24568     24570
     24571     24572     24571     24573     24574     24575     24574     24576
     24577     24578     24577     24579     24580     24581     24580     24582
     24583     24584     24583     24585     24586     24587     24586     24588
     24589     24590     24589     24591     24592     24593     24592     24594
     24595     24596     24595     24597     24598     24599     24598     24600
     24601     24602     24601     24603     24604     24605     24604     24606
     24607     24608     24607     24609     24610     24611     24610     24612
     24613     24614     24613     24615     24616     24617     24616     24618
     24619     24620     24619     24621     24622     24623     24622     24624
     24625     24626     24625     24627     24628     24629     24628     24630
     24631     24632     24631     24633     24634     24635     24634     24636
     24637     24638     24637     24639     24640     24641     24640     24642
     24643     24644     24643     24645     24646     24647     24646     24648
     24649     24650     24649     24651     24652     24653     24652     24654
     24655     24656     24655     24657     24658     24659     24658     24660
     24661     24662     24661     24663     24664     24665     24664     24666
     24667     24668     24667     24669     24670     24671     24670     24672
     24673     24674     24673     24675     24676     24677     24676     24678
     24679     24680     24679     24681     24682     24683     24682     24684
     24685     24686     24685     24687     24688     24689     24688     24690
     24691     24692     24691     24693     24694     24695     24694     24696
     24697     24698     24697     24699     24700     24701     24700     24702
     24703     24704     24703     24705     24706     24707     24706     24708
     24709     24710     24709     24711     24712     24713     24712     24714
     24715     24716     24715     24717     24718     24719     24718     24720
     24721     24722     24721     24723     24724     24725     24724     24726
     24727     24728     24727     24729     24730     24731     24730     24732
     24733     24734     24733     24735     24736     24737     24736     24738
     24739     24740     24739     24741     24742     24743     24742     24744
     24745     24746     24745     24747     24748     24749     24748     24750
     24751     24752     24751     24753     24754     24755     24754     24756
     24757     24758     24757     24759     24760     24761     24760     24762
     24763     24764     24763     24765     24766     24767     24766     24768
     24769     24770     24769     24771     24772     24773     24772     24774
     24775     24776     24775     24777     24778     24779     24778     24780
     24781     24782     24781     24783     24784     24785     24784     24786
     24787     24788     24787     24789     24790     24791     24790     24792
     24793     24794     24793     24795     24796     24797     24796     24798
     24799     24800     24799     24801     24802     24803     24802     24804
     24805     24806     24805     24807     24808     24809     24808     24810
     24811     24812     24811     24813     24814     24815     24814     24816
     24817     24818     24817     24819     24820     24821     24820     24822
     24823     24824     24823     24825     24826     24827     24826     24828
     24829     24830     24829     24831     24832     24833     24832     24834
     24835     24836     24835     24837     24838     24839     24838     24840
     24841     24842     24841     24843     24844     24845     24844     24846
     24847     24848     24847     24849     24850     24851     24850     24852
     24853     24854     24853     24855     24856     24857     24856     24858
     24859     24860     24859     24861     24862     24863     24862     24864
     24865     24866     24865     24867     24868     24869     24868     24870
     24871     24872     24871     24873     24874     24875     24874     24876
     24877     24878     24877     24879     24880     24881     24880     24882
     24883     24884     24883     24885     24886     24887     24886     24888
     24889     24890     24889     24891     24892     24893     24892     24894
     24895     24896     24895     24897     24898     24899     24898     24900
     24901     24902     24901     24903     24904     24905     24904     24906
     24907     24908     24907     24909     24910     24911     24910     24912
     24913     24914     24913     24915     24916     24917     24916     24918
     24919     24920     24919     24921     24922     24923     24922     24924
     24925     24926     24925     24927     24928     24929     24928     24930
     24931     24932     24931     24933     24934     24935     24934     24936
     24937     24938     24937     24939     24940     24941     24940     24942
     24943     24944     24943     24945     24946     24947     24946     24948
     24949     24950     24949     24951     24952     24953     24952     24954
     24955     24956     24955     24957     24958     24959     24958     24960
     24961     24962     24961     24963     24964     24965     24964     24966
     24967     24968     24967     24969     24970     24971     24970     24972
     24973     24974     24973     24975     24976     24977     24976     24978
     24979     24980     24979     24981     24982     24983     24982     24984
     24985     24986     24985     24987     24988     24989     24988     24990
     24991     24992     24991     24993     24994     24995     24994     24996
     24997     24998     24997     24999     25000     25001     25000     25002
     25003     25004     25003     25005     25006     25007     25006     25008
     25009     25010     25009     25011     25012     25013     25012     25014
     25015     25016     25015     25017     25018     25019     25018     25020
     25021     25022     25021     25023     25024     25025     25024     25026
     25027     25028     25027     25029     25030     25031     25030     25032
     25033     25034     25033     25035     25036     25037     25036     25038
     25039     25040     25039     25041     25042     25043     25042     25044
     25045     25046     25045     25047     25048     25049     25048     25050
     25051     25052     25051     25053     25054     25055     25054     25056
     25057     25058     25057     25059     25060     25061     25060     25062
     25063     25064     25063     25065     25066     25067     25066     25068
     25069     25070     25069     25071     25072     25073     25072     25074
     25075     25076     25075     25077     25078     25079     25078     25080
     25081     25082     25081     25083     25084     25085     25084     25086
     25087     25088     25087     25089     25090     25091     25090     25092
     25093     25094     25093     25095     25096     25097     25096     25098
     25099     25100     25099     25101     25102     25103     25102     25104
     25105     25106     25105     25107     25108     25109     25108     25110
     25111     25112     25111     25113     25114     25115     25114     25116
     25117     25118     25117     25119     25120     25121     25120     25122
     25123     25124     25123     25125     25126     25127     25126     25128
     25129     25130     25129     25131     25132     25133     25132     25134
     25135     25136     25135     25137     25138     25139     25138     25140
     25141     25142     25141     25143     25144     25145     25144     25146
     25147     25148     25147     25149     25150     25151     25150     25152
     25153     25154     25153     25155     25156     25157     25156     25158
     25159     25160     25159     25161     25162     25163     25162     25164
     25165     25166     25165     25167     25168     25169     25168     25170
     25171     25172     25171     25173     25174     25175     25174     25176
     25177     25178     25177     25179     25180     25181     25180     25182
     25183     25184     25183     25185     25186     25187     25186     25188
     25189     25190     25189     25191     25192     25193     25192     25194
     25195     25196     25195     25197     25198     25199     25198     25200
     25201     25202     25201     25203     25204     25205     25204     25206
     25207     25208     25207     25209     25210     25211     25210     25212
     25213     25214     25213     25215     25216     25217     25216     25218
     25219     25220     25219     25221     25222     25223     25222     25224
     25225     25226     25225     25227     25228     25229     25228     25230
     25231     25232     25231     25233     25234     25235     25234     25236
     25237     25238     25237     25239     25240     25241     25240     25242
     25243     25244     25243     25245     25246     25247     25246     25248
     25249     25250     25249     25251     25252     25253     25252     25254
     25255     25256     25255     25257     25258     25259     25258     25260
     25261     25262     25261     25263     25264     25265     25264     25266
     25267     25268     25267     25269     25270     25271     25270     25272
     25273     25274     25273     25275     25276     25277     25276     25278
     25279     25280     25279     25281     25282     25283     25282     25284
     25285     25286     25285     25287     25288     25289     25288     25290
     25291     25292     25291     25293     25294     25295     25294     25296
     25297     25298     25297     25299     25300     25301     25300     25302
     25303     25304     25303     25305     25306     25307     25306     25308
     25309     25310     25309     25311     25312     25313     25312     25314
     25315     25316     25315     25317     25318     25319     25318     25320
     25321     25322     25321     25323     25324     25325     25324     25326
     25327     25328     25327     25329     25330     25331     25330     25332
     25333     25334     25333     25335     25336     25337     25336     25338
     25339     25340     25339     25341     25342     25343     25342     25344
     25345     25346     25345     25347     25348     25349     25348     25350
     25351     25352     25351     25353     25354     25355     25354     25356
     25357     25358     25357     25359     25360     25361     25360     25362
     25363     25364     25363     25365     25366     25367     25366     25368
     25369     25370     25369     25371     25372     25373     25372     25374
     25375     25376     25375     25377     25378     25379     25378     25380
     25381     25382     25381     25383     25384     25385     25384     25386
     25387     25388     25387     25389     25390     25391     25390     25392
     25393     25394     25393     25395     25396     25397     25396     25398
     25399     25400     25399     25401     25402     25403     25402     25404
     25405     25406     25405     25407     25408     25409     25408     25410
     25411     25412     25411     25413     25414     25415     25414     25416
     25417     25418     25417     25419     25420     25421     25420     25422
     25423     25424     25423     25425     25426     25427     25426     25428
     25429     25430     25429     25431     25432     25433     25432     25434
     25435     25436     25435     25437     25438     25439     25438     25440
     25441     25442     25441     25443     25444     25445     25444     25446
     25447     25448     25447     25449     25450     25451     25450     25452
     25453     25454     25453     25455     25456     25457     25456     25458
     25459     25460     25459     25461     25462     25463     25462     25464
     25465     25466     25465     25467     25468     25469     25468     25470
     25471     25472     25471     25473     25474     25475     25474     25476
     25477     25478     25477     25479     25480     25481     25480     25482
     25483     25484     25483     25485     25486     25487     25486     25488
     25489     25490     25489     25491     25492     25493     25492     25494
     25495     25496     25495     25497     25498     25499     25498     25500
     25501     25502     25501     25503     25504     25505     25504     25506
     25507     25508     25507     25509     25510     25511     25510     25512
     25513     25514     25513     25515     25516     25517     25516     25518
     25519     25520     25519     25521     25522     25523     25522     25524
     25525     25526     25525     25527     25528     25529     25528     25530
     25531     25532     25531     25533     25534     25535     25534     25536
     25537     25538     25537     25539     25540     25541     25540     25542
     25543     25544     25543     25545     25546     25547     25546     25548
     25549     25550     25549     25551     25552     25553     25552     25554
     25555     25556     25555     25557     25558     25559     25558     25560
     25561     25562     25561     25563     25564     25565     25564     25566
     25567     25568     25567     25569     25570     25571     25570     25572
     25573     25574     25573     25575     25576     25577     25576     25578
     25579     25580     25579     25581     25582     25583     25582     25584
     25585     25586     25585     25587     25588     25589     25588     25590
     25591     25592     25591     25593     25594     25595     25594     25596
     25597     25598     25597     25599     25600     25601     25600     25602
     25603     25604     25603     25605     25606     25607     25606     25608
     25609     25610     25609     25611     25612     25613     25612     25614
     25615     25616     25615     25617     25618     25619     25618     25620
     25621     25622     25621     25623     25624     25625     25624     25626
     25627     25628     25627     25629     25630     25631     25630     25632
     25633     25634     25633     25635     25636     25637     25636     25638
     25639     25640     25639     25641     25642     25643     25642     25644
     25645     25646     25645     25647     25648     25649     25648     25650
     25651     25652     25651     25653     25654     25655     25654     25656
     25657     25658     25657     25659     25660     25661     25660     25662
     25663     25664     25663     25665     25666     25667     25666     25668
     25669     25670     25669     25671     25672     25673     25672     25674
     25675     25676     25675     25677     25678     25679     25678     25680
     25681     25682     25681     25683     25684     25685     25684     25686
     25687     25688     25687     25689     25690     25691     25690     25692
     25693     25694     25693     25695     25696     25697     25696     25698
     25699     25700     25699     25701     25702     25703     25702     25704
     25705     25706     25705     25707     25708     25709     25708     25710
     25711     25712     25711     25713     25714     25715     25714     25716
     25717     25718     25717     25719     25720     25721     25720     25722
     25723     25724     25723     25725     25726     25727     25726     25728
     25729     25730     25729     25731     25732     25733     25732     25734
     25735     25736     25735     25737     25738     25739     25738     25740
     25741     25742     25741     25743     25744     25745     25744     25746
     25747     25748     25747     25749     25750     25751     25750     25752
     25753     25754     25753     25755     25756     25757     25756     25758
     25759     25760     25759     25761     25762     25763     25762     25764
     25765     25766     25765     25767     25768     25769     25768     25770
     25771     25772     25771     25773     25774     25775     25774     25776
     25777     25778     25777     25779     25780     25781     25780     25782
     25783     25784     25783     25785     25786     25787     25786     25788
     25789     25790     25789     25791     25792     25793     25792     25794
     25795     25796     25795     25797     25798     25799     25798     25800
     25801     25802     25801     25803     25804     25805     25804     25806
     25807     25808     25807     25809     25810     25811     25810     25812
     25813     25814     25813     25815     25816     25817     25816     25818
     25819     25820     25819     25821     25822     25823     25822     25824
     25825     25826     25825     25827     25828     25829     25828     25830
     25831     25832     25831     25833     25834     25835     25834     25836
     25837     25838     25837     25839     25840     25841     25840     25842
     25843     25844     25843     25845     25846     25847     25846     25848
     25849     25850     25849     25851     25852     25853     25852     25854
     25855     25856     25855     25857     25858     25859     25858     25860
     25861     25862     25861     25863     25864     25865     25864     25866
     25867     25868     25867     25869     25870     25871     25870     25872
     25873     25874     25873     25875     25876     25877     25876     25878
     25879     25880     25879     25881     25882     25883     25882     25884
     25885     25886     25885     25887     25888     25889     25888     25890
     25891     25892     25891     25893     25894     25895     25894     25896
     25897     25898     25897     25899     25900     25901     25900     25902
     25903     25904     25903     25905     25906     25907     25906     25908
     25909     25910     25909     25911     25912     25913     25912     25914
     25915     25916     25915     25917     25918     25919     25918     25920
     25921     25922     25921     25923     25924     25925     25924     25926
     25927     25928     25927     25929     25930     25931     25930     25932
     25933     25934     25933     25935     25936     25937     25936     25938
     25939     25940     25939     25941     25942     25943     25942     25944
     25945     25946     25945     25947     25948     25949     25948     25950
     25951     25952     25951     25953     25954     25955     25954     25956
     25957     25958     25957     25959     25960     25961     25960     25962
     25963     25964     25963     25965     25966     25967     25966     25968
     25969     25970     25969     25971     25972     25973     25972     25974
     25975     25976     25975     25977     25978     25979     25978     25980
     25981     25982     25981     25983     25984     25985     25984     25986
     25987     25988     25987     25989     25990     25991     25990     25992
     25993     25994     25993     25995     25996     25997     25996     25998
     25999     26000     25999     26001     26002     26003     26002     26004
     26005     26006     26005     26007     26008     26009     26008     26010
     26011     26012     26011     26013     26014     26015     26014     26016
     26017     26018     26017     26019     26020     26021     26020     26022
     26023     26024     26023     26025     26026     26027     26026     26028
     26029     26030     26029     26031     26032     26033     26032     26034
     26035     26036     26035     26037     26038     26039     26038     26040
     26041     26042     26041     26043     26044     26045     26044     26046
     26047     26048     26047     26049     26050     26051     26050     26052
     26053     26054     26053     26055     26056     26057     26056     26058
     26059     26060     26059     26061     26062     26063     26062     26064
     26065     26066     26065     26067     26068     26069     26068     26070
     26071     26072     26071     26073     26074     26075     26074     26076
     26077     26078     26077     26079     26080     26081     26080     26082
     26083     26084     26083     26085     26086     26087     26086     26088
     26089     26090     26089     26091     26092     26093     26092     26094
     26095     26096     26095     26097     26098     26099     26098     26100
     26101     26102     26101     26103     26104     26105     26104     26106
     26107     26108     26107     26109     26110     26111     26110     26112
     26113     26114     26113     26115     26116     26117     26116     26118
     26119     26120     26119     26121     26122     26123     26122     26124
     26125     26126     26125     26127     26128     26129     26128     26130
     26131     26132     26131     26133     26134     26135     26134     26136
     26137     26138     26137     26139     26140     26141     26140     26142
     26143     26144     26143     26145     26146     26147     26146     26148
     26149     26150     26149     26151     26152     26153     26152     26154
     26155     26156     26155     26157     26158     26159     26158     26160
     26161     26162     26161     26163     26164     26165     26164     26166
     26167     26168     26167     26169     26170     26171     26170     26172
     26173     26174     26173     26175     26176     26177     26176     26178
     26179     26180     26179     26181     26182     26183     26182     26184
     26185     26186     26185     26187     26188     26189     26188     26190
     26191     26192     26191     26193     26194     26195     26194     26196
     26197     26198     26197     26199     26200     26201     26200     26202
     26203     26204     26203     26205     26206     26207     26206     26208
     26209     26210     26209     26211     26212     26213     26212     26214
     26215     26216     26215     26217     26218     26219     26218     26220
     26221     26222     26221     26223     26224     26225     26224     26226
     26227     26228     26227     26229     26230     26231     26230     26232
     26233     26234     26233     26235     26236     26237     26236     26238
     26239     26240     26239     26241     26242     26243     26242     26244
     26245     26246     26245     26247     26248     26249     26248     26250
     26251     26252     26251     26253     26254     26255     26254     26256
     26257     26258     26257     26259     26260     26261     26260     26262
     26263     26264     26263     26265     26266     26267     26266     26268
     26269     26270     26269     26271     26272     26273     26272     26274
     26275     26276     26275     26277     26278     26279     26278     26280
     26281     26282     26281     26283     26284     26285     26284     26286
     26287     26288     26287     26289     26290     26291     26290     26292
     26293     26294     26293     26295     26296     26297     26296     26298
     26299     26300     26299     26301     26302     26303     26302     26304
     26305     26306     26305     26307     26308     26309     26308     26310
     26311     26312     26311     26313     26314     26315     26314     26316
     26317     26318     26317     26319     26320     26321     26320     26322
     26323     26324     26323     26325     26326     26327     26326     26328
     26329     26330     26329     26331     26332     26333     26332     26334
     26335     26336     26335     26337     26338     26339     26338     26340
     26341     26342     26341     26343     26344     26345     26344     26346
     26347     26348     26347     26349     26350     26351     26350     26352
     26353     26354     26353     26355     26356     26357     26356     26358
     26359     26360     26359     26361     26362     26363     26362     26364
     26365     26366     26365     26367     26368     26369     26368     26370
     26371     26372     26371     26373     26374     26375     26374     26376
     26377     26378     26377     26379     26380     26381     26380     26382
     26383     26384     26383     26385     26386     26387     26386     26388
     26389     26390     26389     26391     26392     26393     26392     26394
     26395     26396     26395     26397     26398     26399     26398     26400
     26401     26402     26401     26403     26404     26405     26404     26406
     26407     26408     26407     26409     26410     26411     26410     26412
     26413     26414     26413     26415     26416     26417     26416     26418
     26419     26420     26419     26421     26422     26423     26422     26424
     26425     26426     26425     26427     26428     26429     26428     26430
     26431     26432     26431     26433     26434     26435     26434     26436
     26437     26438     26437     26439     26440     26441     26440     26442
     26443     26444     26443     26445     26446     26447     26446     26448
     26449     26450     26449     26451     26452     26453     26452     26454
     26455     26456     26455     26457     26458     26459     26458     26460
     26461     26462     26461     26463     26464     26465     26464     26466
     26467     26468     26467     26469     26470     26471     26470     26472
     26473     26474     26473     26475     26476     26477     26476     26478
     26479     26480     26479     26481     26482     26483     26482     26484
     26485     26486     26485     26487     26488     26489     26488     26490
     26491     26492     26491     26493     26494     26495     26494     26496
     26497     26498     26497     26499     26500     26501     26500     26502
     26503     26504     26503     26505     26506     26507     26506     26508
     26509     26510     26509     26511     26512     26513     26512     26514
     26515     26516     26515     26517     26518     26519     26518     26520
     26521     26522     26521     26523     26524     26525     26524     26526
     26527     26528     26527     26529     26530     26531     26530     26532
     26533     26534     26533     26535     26536     26537     26536     26538
     26539     26540     26539     26541     26542     26543     26542     26544
     26545     26546     26545     26547     26548     26549     26548     26550
     26551     26552     26551     26553     26554     26555     26554     26556
     26557     26558     26557     26559     26560     26561     26560     26562
     26563     26564     26563     26565     26566     26567     26566     26568
     26569     26570     26569     26571     26572     26573     26572     26574
     26575     26576     26575     26577     26578     26579     26578     26580
     26581     26582     26581     26583     26584     26585     26584     26586
     26587     26588     26587     26589     26590     26591     26590     26592
     26593     26594     26593     26595     26596     26597     26596     26598
     26599     26600     26599     26601     26602     26603     26602     26604
     26605     26606     26605     26607     26608     26609     26608     26610
     26611     26612     26611     26613     26614     26615     26614     26616
     26617     26618     26617     26619     26620     26621     26620     26622
     26623     26624     26623     26625     26626     26627     26626     26628
     26629     26630     26629     26631     26632     26633     26632     26634
     26635     26636     26635     26637     26638     26639     26638     26640
     26641     26642     26641     26643     26644     26645     26644     26646
     26647     26648     26647     26649     26650     26651     26650     26652
     26653     26654     26653     26655     26656     26657     26656     26658
     26659     26660     26659     26661     26662     26663     26662     26664
     26665     26666     26665     26667     26668     26669     26668     26670
     26671     26672     26671     26673     26674     26675     26674     26676
     26677     26678     26677     26679     26680     26681     26680     26682
     26683     26684     26683     26685     26686     26687     26686     26688
     26689     26690     26689     26691     26692     26693     26692     26694
     26695     26696     26695     26697     26698     26699     26698     26700
     26701     26702     26701     26703     26704     26705     26704     26706
     26707     26708     26707     26709     26710     26711     26710     26712
     26713     26714     26713     26715     26716     26717     26716     26718
     26719     26720     26719     26721     26722     26723     26722     26724
     26725     26726     26725     26727     26728     26729     26728     26730
     26731     26732     26731     26733     26734     26735     26734     26736
     26737     26738     26737     26739     26740     26741     26740     26742
     26743     26744     26743     26745     26746     26747     26746     26748
     26749     26750     26749     26751     26752     26753     26752     26754
     26755     26756     26755     26757     26758     26759     26758     26760
     26761     26762     26761     26763     26764     26765     26764     26766
     26767     26768     26767     26769     26770     26771     26770     26772
     26773     26774     26773     26775     26776     26777     26776     26778
     26779     26780     26779     26781     26782     26783     26782     26784
     26785     26786     26785     26787     26788     26789     26788     26790
     26791     26792     26791     26793     26794     26795     26794     26796
     26797     26798     26797     26799     26800     26801     26800     26802
     26803     26804     26803     26805     26806     26807     26806     26808
     26809     26810     26809     26811     26812     26813     26812     26814
     26815     26816     26815     26817     26818     26819     26818     26820
     26821     26822     26821     26823     26824     26825     26824     26826
     26827     26828     26827     26829     26830     26831     26830     26832
     26833     26834     26833     26835     26836     26837     26836     26838
     26839     26840     26839     26841     26842     26843     26842     26844
     26845     26846     26845     26847     26848     26849     26848     26850
     26851     26852     26851     26853     26854     26855     26854     26856
     26857     26858     26857     26859     26860     26861     26860     26862
     26863     26864     26863     26865     26866     26867     26866     26868
     26869     26870     26869     26871     26872     26873     26872     26874
     26875     26876     26875     26877     26878     26879     26878     26880
     26881     26882     26881     26883     26884     26885     26884     26886
     26887     26888     26887     26889     26890     26891     26890     26892
     26893     26894     26893     26895     26896     26897     26896     26898
     26899     26900     26899     26901     26902     26903     26902     26904
     26905     26906     26905     26907     26908     26909     26908     26910
     26911     26912     26911     26913     26914     26915     26914     26916
     26917     26918     26917     26919     26920     26921     26920     26922
     26923     26924     26923     26925     26926     26927     26926     26928
     26929     26930     26929     26931     26932     26933     26932     26934
     26935     26936     26935     26937     26938     26939     26938     26940
     26941     26942     26941     26943     26944     26945     26944     26946
     26947     26948     26947     26949     26950     26951     26950     26952
     26953     26954     26953     26955     26956     26957     26956     26958
     26959     26960     26959     26961     26962     26963     26962     26964
     26965     26966     26965     26967     26968     26969     26968     26970
     26971     26972     26971     26973     26974     26975     26974     26976
     26977     26978     26977     26979     26980     26981     26980     26982
     26983     26984     26983     26985     26986     26987     26986     26988
     26989     26990     26989     26991     26992     26993     26992     26994
     26995     26996     26995     26997     26998     26999     26998     27000
     27001     27002     27001     27003     27004     27005     27004     27006
     27007     27008     27007     27009     27010     27011     27010     27012
     27013     27014     27013     27015     27016     27017     27016     27018
     27019     27020     27019     27021     27022     27023     27022     27024
     27025     27026     27025     27027     27028     27029     27028     27030
     27031     27032     27031     27033     27034     27035     27034     27036
     27037     27038     27037     27039     27040     27041     27040     27042
     27043     27044     27043     27045     27046     27047     27046     27048
     27049     27050     27049     27051     27052     27053     27052     27054
     27055     27056     27055     27057     27058     27059     27058     27060
     27061     27062     27061     27063     27064     27065     27064     27066
     27067     27068     27067     27069     27070     27071     27070     27072
     27073     27074     27073     27075     27076     27077     27076     27078
     27079     27080     27079     27081     27082     27083     27082     27084
     27085     27086     27085     27087     27088     27089     27088     27090
     27091     27092     27091     27093     27094     27095     27094     27096
     27097     27098     27097     27099     27100     27101     27100     27102
     27103     27104     27103     27105     27106     27107     27106     27108
     27109     27110     27109     27111     27112     27113     27112     27114
     27115     27116     27115     27117     27118     27119     27118     27120
     27121     27122     27121     27123     27124     27125     27124     27126
     27127     27128     27127     27129     27130     27131     27130     27132
     27133     27134     27133     27135     27136     27137     27136     27138
     27139     27140     27139     27141     27142     27143     27142     27144
     27145     27146     27145     27147     27148     27149     27148     27150
     27151     27152     27151     27153     27154     27155     27154     27156
     27157     27158     27157     27159     27160     27161     27160     27162
     27163     27164     27163     27165     27166     27167     27166     27168
     27169     27170     27169     27171     27172     27173     27172     27174
     27175     27176     27175     27177     27178     27179     27178     27180
     27181     27182     27181     27183     27184     27185     27184     27186
     27187     27188     27187     27189     27190     27191     27190     27192
     27193     27194     27193     27195     27196     27197     27196     27198
     27199     27200     27199     27201     27202     27203     27202     27204
     27205     27206     27205     27207     27208     27209     27208     27210
     27211     27212     27211     27213     27214     27215     27214     27216
     27217     27218     27217     27219     27220     27221     27220     27222
     27223     27224     27223     27225     27226     27227     27226     27228
     27229     27230     27229     27231     27232     27233     27232     27234
     27235     27236     27235     27237     27238     27239     27238     27240
     27241     27242     27241     27243     27244     27245     27244     27246
     27247     27248     27247     27249     27250     27251     27250     27252
     27253     27254     27253     27255     27256     27257     27256     27258
     27259     27260     27259     27261     27262     27263     27262     27264
     27265     27266     27265     27267     27268     27269     27268     27270
     27271     27272     27271     27273     27274     27275     27274     27276
     27277     27278     27277     27279     27280     27281     27280     27282
     27283     27284     27283     27285     27286     27287     27286     27288
     27289     27290     27289     27291     27292     27293     27292     27294
     27295     27296     27295     27297     27298     27299     27298     27300
     27301     27302     27301     27303     27304     27305     27304     27306
     27307     27308     27307     27309     27310     27311     27310     27312
     27313     27314     27313     27315     27316     27317     27316     27318
     27319     27320     27319     27321     27322     27323     27322     27324
     27325     27326     27325     27327     27328     27329     27328     27330
     27331     27332     27331     27333     27334     27335     27334     27336
     27337     27338     27337     27339     27340     27341     27340     27342
     27343     27344     27343     27345     27346     27347     27346     27348
     27349     27350     27349     27351     27352     27353     27352     27354
     27355     27356     27355     27357     27358     27359     27358     27360
     27361     27362     27361     27363     27364     27365     27364     27366
     27367     27368     27367     27369     27370     27371     27370     27372
     27373     27374     27373     27375     27376     27377     27376     27378
     27379     27380     27379     27381     27382     27383     27382     27384
     27385     27386     27385     27387     27388     27389     27388     27390
     27391     27392     27391     27393     27394     27395     27394     27396
     27397     27398     27397     27399     27400     27401     27400     27402
     27403     27404     27403     27405     27406     27407     27406     27408
     27409     27410     27409     27411     27412     27413     27412     27414
     27415     27416     27415     27417     27418     27419     27418     27420
     27421     27422     27421     27423     27424     27425     27424     27426
     27427     27428     27427     27429     27430     27431     27430     27432
     27433     27434     27433     27435     27436     27437     27436     27438
     27439     27440     27439     27441     27442     27443     27442     27444
     27445     27446     27445     27447     27448     27449     27448     27450
     27451     27452     27451     27453     27454     27455     27454     27456
     27457     27458     27457     27459     27460     27461     27460     27462
     27463     27464     27463     27465     27466     27467     27466     27468
     27469     27470     27469     27471     27472     27473     27472     27474
     27475     27476     27475     27477     27478     27479     27478     27480
     27481     27482     27481     27483     27484     27485     27484     27486
     27487     27488     27487     27489     27490     27491     27490     27492
     27493     27494     27493     27495     27496     27497     27496     27498
     27499     27500     27499     27501     27502     27503     27502     27504
     27505     27506     27505     27507     27508     27509     27508     27510
     27511     27512     27511     27513     27514     27515     27514     27516
     27517     27518     27517     27519     27520     27521     27520     27522
     27523     27524     27523     27525     27526     27527     27526     27528
     27529     27530     27529     27531     27532     27533     27532     27534
     27535     27536     27535     27537     27538     27539     27538     27540
     27541     27542     27541     27543     27544     27545     27544     27546
     27547     27548     27547     27549     27550     27551     27550     27552
     27553     27554     27553     27555     27556     27557     27556     27558
     27559     27560     27559     27561     27562     27563     27562     27564
     27565     27566     27565     27567     27568     27569     27568     27570
     27571     27572     27571     27573     27574     27575     27574     27576
     27577     27578     27577     27579     27580     27581     27580     27582
     27583     27584     27583     27585     27586     27587     27586     27588
     27589     27590     27589     27591     27592     27593     27592     27594
     27595     27596     27595     27597     27598     27599     27598     27600
     27601     27602     27601     27603     27604     27605     27604     27606
     27607     27608     27607     27609     27610     27611     27610     27612
     27613     27614     27613     27615     27616     27617     27616     27618
     27619     27620     27619     27621     27622     27623     27622     27624
     27625     27626     27625     27627     27628     27629     27628     27630
     27631     27632     27631     27633     27634     27635     27634     27636
     27637     27638     27637     27639     27640     27641     27640     27642
     27643     27644     27643     27645     27646     27647     27646     27648
     27649     27650     27649     27651     27652     27653     27652     27654
     27655     27656     27655     27657     27658     27659     27658     27660
     27661     27662     27661     27663     27664     27665     27664     27666
     27667     27668     27667     27669     27670     27671     27670     27672
     27673     27674     27673     27675     27676     27677     27676     27678
     27679     27680     27679     27681     27682     27683     27682     27684
     27685     27686     27685     27687     27688     27689     27688     27690
     27691     27692     27691     27693     27694     27695     27694     27696
     27697     27698     27697     27699     27700     27701     27700     27702
     27703     27704     27703     27705     27706     27707     27706     27708
     27709     27710     27709     27711     27712     27713     27712     27714
     27715     27716     27715     27717     27718     27719     27718     27720
     27721     27722     27721     27723     27724     27725     27724     27726
     27727     27728     27727     27729     27730     27731     27730     27732
     27733     27734     27733     27735     27736     27737     27736     27738
     27739     27740     27739     27741     27742     27743     27742     27744
     27745     27746     27745     27747     27748     27749     27748     27750
     27751     27752     27751     27753     27754     27755     27754     27756
     27757     27758     27757     27759     27760     27761     27760     27762
     27763     27764     27763     27765     27766     27767     27766     27768
     27769     27770     27769     27771     27772     27773     27772     27774
     27775     27776     27775     27777     27778     27779     27778     27780
     27781     27782     27781     27783     27784     27785     27784     27786
     27787     27788     27787     27789     27790     27791     27790     27792
     27793     27794     27793     27795     27796     27797     27796     27798
     27799     27800     27799     27801     27802     27803     27802     27804
     27805     27806     27805     27807     27808     27809     27808     27810
     27811     27812     27811     27813     27814     27815     27814     27816
     27817     27818     27817     27819     27820     27821     27820     27822
     27823     27824     27823     27825     27826     27827     27826     27828
     27829     27830     27829     27831     27832     27833     27832     27834
     27835     27836     27835     27837     27838     27839     27838     27840
     27841     27842     27841     27843     27844     27845     27844     27846
     27847     27848     27847     27849     27850     27851     27850     27852
     27853     27854     27853     27855     27856     27857     27856     27858
     27859     27860     27859     27861     27862     27863     27862     27864
     27865     27866     27865     27867     27868     27869     27868     27870
     27871     27872     27871     27873     27874     27875     27874     27876
     27877     27878     27877     27879     27880     27881     27880     27882
     27883     27884     27883     27885     27886     27887     27886     27888
     27889     27890     27889     27891     27892     27893     27892     27894
     27895     27896     27895     27897     27898     27899     27898     27900
     27901     27902     27901     27903     27904     27905     27904     27906
     27907     27908     27907     27909     27910     27911     27910     27912
     27913     27914     27913     27915     27916     27917     27916     27918
     27919     27920     27919     27921     27922     27923     27922     27924
     27925     27926     27925     27927     27928     27929     27928     27930
     27931     27932     27931     27933     27934     27935     27934     27936
     27937     27938     27937     27939     27940     27941     27940     27942
     27943     27944     27943     27945     27946     27947     27946     27948
     27949     27950     27949     27951     27952     27953     27952     27954
     27955     27956     27955     27957     27958     27959     27958     27960
     27961     27962     27961     27963     27964     27965     27964     27966
     27967     27968     27967     27969     27970     27971     27970     27972
     27973     27974     27973     27975     27976     27977     27976     27978
     27979     27980     27979     27981     27982     27983     27982     27984
     27985     27986     27985     27987     27988     27989     27988     27990
     27991     27992     27991     27993     27994     27995     27994     27996
     27997     27998     27997     27999     28000     28001     28000     28002
     28003     28004     28003     28005     28006     28007     28006     28008
     28009     28010     28009     28011     28012     28013     28012     28014
     28015     28016     28015     28017     28018     28019     28018     28020
     28021     28022     28021     28023     28024     28025     28024     28026
     28027     28028     28027     28029     28030     28031     28030     28032
     28033     28034     28033     28035     28036     28037     28036     28038
     28039     28040     28039     28041     28042     28043     28042     28044
     28045     28046     28045     28047     28048     28049     28048     28050
     28051     28052     28051     28053     28054     28055     28054     28056
     28057     28058     28057     28059     28060     28061     28060     28062
     28063     28064     28063     28065     28066     28067     28066     28068
     28069     28070     28069     28071     28072     28073     28072     28074
     28075     28076     28075     28077     28078     28079     28078     28080
     28081     28082     28081     28083     28084     28085     28084     28086
     28087     28088     28087     28089     28090     28091     28090     28092
     28093     28094     28093     28095     28096     28097     28096     28098
     28099     28100     28099     28101     28102     28103     28102     28104
     28105     28106     28105     28107     28108     28109     28108     28110
     28111     28112     28111     28113     28114     28115     28114     28116
     28117     28118     28117     28119     28120     28121     28120     28122
     28123     28124     28123     28125     28126     28127     28126     28128
     28129     28130     28129     28131     28132     28133     28132     28134
     28135     28136     28135     28137     28138     28139     28138     28140
     28141     28142     28141     28143     28144     28145     28144     28146
     28147     28148     28147     28149     28150     28151     28150     28152
     28153     28154     28153     28155     28156     28157     28156     28158
     28159     28160     28159     28161     28162     28163     28162     28164
     28165     28166     28165     28167     28168     28169     28168     28170
     28171     28172     28171     28173     28174     28175     28174     28176
     28177     28178     28177     28179     28180     28181     28180     28182
     28183     28184     28183     28185     28186     28187     28186     28188
     28189     28190     28189     28191     28192     28193     28192     28194
     28195     28196     28195     28197     28198     28199     28198     28200
     28201     28202     28201     28203     28204     28205     28204     28206
     28207     28208     28207     28209     28210     28211     28210     28212
     28213     28214     28213     28215     28216     28217     28216     28218
     28219     28220     28219     28221     28222     28223     28222     28224
     28225     28226     28225     28227     28228     28229     28228     28230
     28231     28232     28231     28233     28234     28235     28234     28236
     28237     28238     28237     28239     28240     28241     28240     28242
     28243     28244     28243     28245     28246     28247     28246     28248
     28249     28250     28249     28251     28252     28253     28252     28254
     28255     28256     28255     28257     28258     28259     28258     28260
     28261     28262     28261     28263     28264     28265     28264     28266
     28267     28268     28267     28269     28270     28271     28270     28272
     28273     28274     28273     28275     28276     28277     28276     28278
     28279     28280     28279     28281     28282     28283     28282     28284
     28285     28286     28285     28287     28288     28289     28288     28290
     28291     28292     28291     28293     28294     28295     28294     28296
     28297     28298     28297     28299     28300     28301     28300     28302
     28303     28304     28303     28305     28306     28307     28306     28308
     28309     28310     28309     28311     28312     28313     28312     28314
     28315     28316     28315     28317     28318     28319     28318     28320
     28321     28322     28321     28323     28324     28325     28324     28326
     28327     28328     28327     28329     28330     28331     28330     28332
     28333     28334     28333     28335     28336     28337     28336     28338
     28339     28340     28339     28341     28342     28343     28342     28344
     28345     28346     28345     28347     28348     28349     28348     28350
     28351     28352     28351     28353     28354     28355     28354     28356
     28357     28358     28357     28359     28360     28361     28360     28362
     28363     28364     28363     28365     28366     28367     28366     28368
     28369     28370     28369     28371     28372     28373     28372     28374
     28375     28376     28375     28377     28378     28379     28378     28380
     28381     28382     28381     28383     28384     28385     28384     28386
     28387     28388     28387     28389     28390     28391     28390     28392
     28393     28394     28393     28395     28396     28397     28396     28398
     28399     28400     28399     28401     28402     28403     28402     28404
     28405     28406     28405     28407     28408     28409     28408     28410
     28411     28412     28411     28413     28414     28415     28414     28416
     28417     28418     28417     28419     28420     28421     28420     28422
     28423     28424     28423     28425     28426     28427     28426     28428
     28429     28430     28429     28431     28432     28433     28432     28434
     28435     28436     28435     28437     28438     28439     28438     28440
     28441     28442     28441     28443     28444     28445     28444     28446
     28447     28448     28447     28449     28450     28451     28450     28452
     28453     28454     28453     28455     28456     28457     28456     28458
     28459     28460     28459     28461     28462     28463     28462     28464
     28465     28466     28465     28467     28468     28469     28468     28470
     28471     28472     28471     28473     28474     28475     28474     28476
     28477     28478     28477     28479     28480     28481     28480     28482
     28483     28484     28483     28485     28486     28487     28486     28488
     28489     28490     28489     28491     28492     28493     28492     28494
     28495     28496     28495     28497     28498     28499     28498     28500
     28501     28502     28501     28503     28504     28505     28504     28506
     28507     28508     28507     28509     28510     28511     28510     28512
     28513     28514     28513     28515     28516     28517     28516     28518
     28519     28520     28519     28521     28522     28523     28522     28524
     28525     28526     28525     28527     28528     28529     28528     28530
     28531     28532     28531     28533     28534     28535     28534     28536
     28537     28538     28537     28539     28540     28541     28540     28542
     28543     28544     28543     28545     28546     28547     28546     28548
     28549     28550     28549     28551     28552     28553     28552     28554
     28555     28556     28555     28557     28558     28559     28558     28560
     28561     28562     28561     28563     28564     28565     28564     28566
     28567     28568     28567     28569     28570     28571     28570     28572
     28573     28574     28573     28575     28576     28577     28576     28578
     28579     28580     28579     28581     28582     28583     28582     28584
     28585     28586     28585     28587     28588     28589     28588     28590
     28591     28592     28591     28593     28594     28595     28594     28596
     28597     28598     28597     28599     28600     28601     28600     28602
     28603     28604     28603     28605     28606     28607     28606     28608
     28609     28610     28609     28611     28612     28613     28612     28614
     28615     28616     28615     28617     28618     28619     28618     28620
     28621     28622     28621     28623     28624     28625     28624     28626
     28627     28628     28627     28629     28630     28631     28630     28632
     28633     28634     28633     28635     28636     28637     28636     28638
     28639     28640     28639     28641     28642     28643     28642     28644
     28645     28646     28645     28647     28648     28649     28648     28650
     28651     28652     28651     28653     28654     28655     28654     28656
     28657     28658     28657     28659     28660     28661     28660     28662
     28663     28664     28663     28665     28666     28667     28666     28668
     28669     28670     28669     28671     28672     28673     28672     28674
     28675     28676     28675     28677     28678     28679     28678     28680
     28681     28682     28681     28683     28684     28685     28684     28686
     28687     28688     28687     28689     28690     28691     28690     28692
     28693     28694     28693     28695     28696     28697     28696     28698
     28699     28700     28699     28701     28702     28703     28702     28704
     28705     28706     28705     28707     28708     28709     28708     28710
     28711     28712     28711     28713     28714     28715     28714     28716
     28717     28718     28717     28719     28720     28721     28720     28722
     28723     28724     28723     28725     28726     28727     28726     28728
     28729     28730     28729     28731     28732     28733     28732     28734
     28735     28736     28735     28737     28738     28739     28738     28740
     28741     28742     28741     28743     28744     28745     28744     28746
     28747     28748     28747     28749     28750     28751     28750     28752
     28753     28754     28753     28755     28756     28757     28756     28758
     28759     28760     28759     28761     28762     28763     28762     28764
     28765     28766     28765     28767     28768     28769     28768     28770
     28771     28772     28771     28773     28774     28775     28774     28776
     28777     28778     28777     28779     28780     28781     28780     28782
     28783     28784     28783     28785     28786     28787     28786     28788
     28789     28790     28789     28791     28792     28793     28792     28794
     28795     28796     28795     28797     28798     28799     28798     28800

      4683 !NACC: acceptors
     13801     13800     13804     13800     13807     13800     13810     13800
     13813     13800     13816     13800     13819     13800     13822     13800
     13825     13800     13828     13800     13831     13800     13834     13800
     13837     13800     13840     13800     13843     13800     13846     13800
     13849     13800     13852     13800     13855     13800     13858     13800
     13861     13800     13864     13800     13867     13800     13870     13800
     13873     13800     13876     13800     13879     13800     13882     13800
     13885     13800     13888     13800     13891     13800     13894     13800
     13897     13800     13900     13800     13903     13800     13906     13800
     13909     13800     13912     13800     13915     13800     13918     13800
     13921     13800     13924     13800     13927     13800     13930     13800
     13933     13800     13936     13800     13939     13800     13942     13800
     13945     13800     13948     13800     13951     13800     13954     13800
     13957     13800     13960     13800     13963     13800     13966     13800
     13969     13800     13972     13800     13975     13800     13978     13800
     13981     13800     13984     13800     13987     13800     13990     13800
     13993     13800     13996     13800     13999     13800     14002     13800
     14005     13800     14008     13800     14011     13800     14014     13800
     14017     13800     14020     13800     14023     13800     14026     13800
     14029     13800     14032     13800     14035     13800     14038     13800
     14041     13800     14044     13800     14047     13800     14050     13800
     14053     13800     14056     13800     14059     13800     14062     13800
     14065     13800     14068     13800     14071     13800     14074     13800
     14077     13800     14080     13800     14083     13800     14086     13800
     14089     13800     14092     13800     14095     13800     14098     13800
     14101     13800     14104     13800     14107     13800     14110     13800
     14113     13800     14116     13800     14119     13800     14122     13800
     14125     13800     14128     13800     14131     13800     14134     13800
     14137     13800     14140     13800     14143     13800     14146     13800
     14149     13800     14152     13800     14155     13800     14158     13800
     14161     13800     14164     13800     14167     13800     14170     13800
     14173     13800     14176     13800     14179     13800     14182     13800
     14185     13800     14188     13800     14191     13800     14194     13800
     14197     13800     14200     13800     14203     13800     14206     13800
     14209     13800     14212     13800     14215     13800     14218     13800
     14221     13800     14224     13800     14227     13800     14230     13800
     14233     13800     14236     13800     14239     13800     14242     13800
     14245     13800     14248     13800     14251     13800     14254     13800
     14257     13800     14260     13800     14263     13800     14266     13800
     14269     13800     14272     13800     14275     13800     14278     13800
     14281     13800     14284     13800     14287     13800     14290     13800
     14293     13800     14296     13800     14299     13800     14302     13800
     14305     13800     14308     13800     14311     13800     14314     13800
     14317     13800     14320     13800     14323     13800     14326     13800
     14329     13800     14332     13800     14335     13800     14338     13800
     14341     13800     14344     13800     14347     13800     14350     13800
     14353     13800     14356     13800     14359     13800     14362     13800
     14365     13800     14368     13800     14371     13800     14374     13800
     14377     13800     14380     13800     14383     13800     14386     13800
     14389     13800     14392     13800     14395     13800     14398     13800
     14401     13800     14404     13800     14407     13800     14410     13800
     14413     13800     14416     13800     14419     13800     14422     13800
     14425     13800     14428     13800     14431     13800     14434     13800
     14437     13800     14440     13800     14443     13800     14446     13800
     14449     13800     14452     13800     14455     13800     14458     13800
     14461     13800     14464     13800     14467     13800     14470     13800
     14473     13800     14476     13800     14479     13800     14482     13800
     14485     13800     14488     13800     14491     13800     14494     13800
     14497     13800     14500     13800     14503     13800     14506     13800
     14509     13800     14512     13800     14515     13800     14518     13800
     14521     13800     14524     13800     14527     13800     14530     13800
     14533     13800     14536     13800     14539     13800     14542     13800
     14545     13800     14548     13800     14551     13800     14554     13800
     14557     13800     14560     13800     14563     13800     14566     13800
     14569     13800     14572     13800     14575     13800     14578     13800
     14581     13800     14584     13800     14587     13800     14590     13800
     14593     13800     14596     13800     14599     13800     14602     13800
     14605     13800     14608     13800     14611     13800     14614     13800
     14617     13800     14620     13800     14623     13800     14626     13800
     14629     13800     14632     13800     14635     13800     14638     13800
     14641     13800     14644     13800     14647     13800     14650     13800
     14653     13800     14656     13800     14659     13800     14662     13800
     14665     13800     14668     13800     14671     13800     14674     13800
     14677     13800     14680     13800     14683     13800     14686     13800
     14689     13800     14692     13800     14695     13800     14698     13800
     14701     13800     14704     13800     14707     13800     14710     13800
     14713     13800     14716     13800     14719     13800     14722     13800
     14725     13800     14728     13800     14731     13800     14734     13800
     14737     13800     14740     13800     14743     13800     14746     13800
     14749     13800     14752     13800     14755     13800     14758     13800
     14761     13800     14764     13800     14767     13800     14770     13800
     14773     13800     14776     13800     14779     13800     14782     13800
     14785     13800     14788     13800     14791     13800     14794     13800
     14797     13800     14800     13800     14803     13800     14806     13800
     14809     13800     14812     13800     14815     13800     14818     13800
     14821     13800     14824     13800     14827     13800     14830     13800
     14833     13800     14836     13800     14839     13800     14842     13800
     14845     13800     14848     13800     14851     13800     14854     13800
     14857     13800     14860     13800     14863     13800     14866     13800
     14869     13800     14872     13800     14875     13800     14878     13800
     14881     13800     14884     13800     14887     13800     14890     13800
     14893     13800     14896     13800     14899     13800     14902     13800
     14905     13800     14908     13800     14911     13800     14914     13800
     14917     13800     14920     13800     14923     13800     14926     13800
     14929     13800     14932     13800     14935     13800     14938     13800
     14941     13800     14944     13800     14947     13800     14950     13800
     14953     13800     14956     13800     14959     13800     14962     13800
     14965     13800     14968     13800     14971     13800     14974     13800
     14977     13800     14980     13800     14983     13800     14986     13800
     14989     13800     14992     13800     14995     13800     14998     13800
     15001     13800     15004     13800     15007     13800     15010     13800
     15013     13800     15016     13800     15019     13800     15022     13800
     15025     13800     15028     13800     15031     13800     15034     13800
     15037     13800     15040     13800     15043     13800     15046     13800
     15049     13800     15052     13800     15055     13800     15058     13800
     15061     13800     15064     13800     15067     13800     15070     13800
     15073     13800     15076     13800     15079     13800     15082     13800
     15085     13800     15088     13800     15091     13800     15094     13800
     15097     13800     15100     13800     15103     13800     15106     13800
     15109     13800     15112     13800     15115     13800     15118     13800
     15121     13800     15124     13800     15127     13800     15130     13800
     15133     13800     15136     13800     15139     13800     15142     13800
     15145     13800     15148     13800     15151     13800     15154     13800
     15157     13800     15160     13800     15163     13800     15166     13800
     15169     13800     15172     13800     15175     13800     15178     13800
     15181     13800     15184     13800     15187     13800     15190     13800
     15193     13800     15196     13800     15199     13800     15202     13800
     15205     13800     15208     13800     15211     13800     15214     13800
     15217     13800     15220     13800     15223     13800     15226     13800
     15229     13800     15232     13800     15235     13800     15238     13800
     15241     13800     15244     13800     15247     13800     15250     13800
     15253     13800     15256     13800     15259     13800     15262     13800
     15265     13800     15268     13800     15271     13800     15274     13800
     15277     13800     15280     13800     15283     13800     15286     13800
     15289     13800     15292     13800     15295     13800     15298     13800
     15301     13800     15304     13800     15307     13800     15310     13800
     15313     13800     15316     13800     15319     13800     15322     13800
     15325     13800     15328     13800     15331     13800     15334     13800
     15337     13800     15340     13800     15343     13800     15346     13800
     15349     13800     15352     13800     15355     13800     15358     13800
     15361     13800     15364     13800     15367     13800     15370     13800
     15373     13800     15376     13800     15379     13800     15382     13800
     15385     13800     15388     13800     15391     13800     15394     13800
     15397     13800     15400     13800     15403     13800     15406     13800
     15409     13800     15412     13800     15415     13800     15418     13800
     15421     13800     15424     13800     15427     13800     15430     13800
     15433     13800     15436     13800     15439     13800     15442     13800
     15445     13800     15448     13800     15451     13800     15454     13800
     15457     13800     15460     13800     15463     13800     15466     13800
     15469     13800     15472     13800     15475     13800     15478     13800
     15481     13800     15484     13800     15487     13800     15490     13800
     15493     13800     15496     13800     15499     13800     15502     13800
     15505     13800     15508     13800     15511     13800     15514     13800
     15517     13800     15520     13800     15523     13800     15526     13800
     15529     13800     15532     13800     15535     13800     15538     13800
     15541     13800     15544     13800     15547     13800     15550     13800
     15553     13800     15556     13800     15559     13800     15562     13800
     15565     13800     15568     13800     15571     13800     15574     13800
     15577     13800     15580     13800     15583     13800     15586     13800
     15589     13800     15592     13800     15595     13800     15598     13800
     15601     13800     15604     13800     15607     13800     15610     13800
     15613     13800     15616     13800     15619     13800     15622     13800
     15625     13800     15628     13800     15631     13800     15634     13800
     15637     13800     15640     13800     15643     13800     15646     13800
     15649     13800     15652     13800     15655     13800     15658     13800
     15661     13800     15664     13800     15667     13800     15670     13800
     15673     13800     15676     13800     15679     13800     15682     13800
     15685     13800     15688     13800     15691     13800     15694     13800
     15697     13800     15700     13800     15703     13800     15706     13800
     15709     13800     15712     13800     15715     13800     15718     13800
     15721     13800     15724     13800     15727     13800     15730     13800
     15733     13800     15736     13800     15739     13800     15742     13800
     15745     13800     15748     13800     15751     13800     15754     13800
     15757     13800     15760     13800     15763     13800     15766     13800
     15769     13800     15772     13800     15775     13800     15778     13800
     15781     13800     15784     13800     15787     13800     15790     13800
     15793     13800     15796     13800     15799     13800     15802     13800
     15805     13800     15808     13800     15811     13800     15814     13800
     15817     13800     15820     13800     15823     13800     15826     13800
     15829     13800     15832     13800     15835     13800     15838     13800
     15841     13800     15844     13800     15847     13800     15850     13800
     15853     13800     15856     13800     15859     13800     15862     13800
     15865     13800     15868     13800     15871     13800     15874     13800
     15877     13800     15880     13800     15883     13800     15886     13800
     15889     13800     15892     13800     15895     13800     15898     13800
     15901     13800     15904     13800     15907     13800     15910     13800
     15913     13800     15916     13800     15919     13800     15922     13800
     15925     13800     15928     13800     15931     13800     15934     13800
     15937     13800     15940     13800     15943     13800     15946     13800
     15949     13800     15952     13800     15955     13800     15958     13800
     15961     13800     15964     13800     15967     13800     15970     13800
     15973     13800     15976     13800     15979     13800     15982     13800
     15985     13800     15988     13800     15991     13800     15994     13800
     15997     13800     16000     13800     16003     13800     16006     13800
     16009     13800     16012     13800     16015     13800     16018     13800
     16021     13800     16024     13800     16027     13800     16030     13800
     16033     13800     16036     13800     16039     13800     16042     13800
     16045     13800     16048     13800     16051     13800     16054     13800
     16057     13800     16060     13800     16063     13800     16066     13800
     16069     13800     16072     13800     16075     13800     16078     13800
     16081     13800     16084     13800     16087     13800     16090     13800
     16093     13800     16096     13800     16099     13800     16102     13800
     16105     13800     16108     13800     16111     13800     16114     13800
     16117     13800     16120     13800     16123     13800     16126     13800
     16129     13800     16132     13800     16135     13800     16138     13800
     16141     13800     16144     13800     16147     13800     16150     13800
     16153     13800     16156     13800     16159     13800     16162     13800
     16165     13800     16168     13800     16171     13800     16174     13800
     16177     13800     16180     13800     16183     13800     16186     13800
     16189     13800     16192     13800     16195     13800     16198     13800
     16201     13800     16204     13800     16207     13800     16210     13800
     16213     13800     16216     13800     16219     13800     16222     13800
     16225     13800     16228     13800     16231     13800     16234     13800
     16237     13800     16240     13800     16243     13800     16246     13800
     16249     13800     16252     13800     16255     13800     16258     13800
     16261     13800     16264     13800     16267     13800     16270     13800
     16273     13800     16276     13800     16279     13800     16282     13800
     16285     13800     16288     13800     16291     13800     16294     13800
     16297     13800     16300     13800     16303     13800     16306     13800
     16309     13800     16312     13800     16315     13800     16318     13800
     16321     13800     16324     13800     16327     13800     16330     13800
     16333     13800     16336     13800     16339     13800     16342     13800
     16345     13800     16348     13800     16351     13800     16354     13800
     16357     13800     16360     13800     16363     13800     16366     13800
     16369     13800     16372     13800     16375     13800     16378     13800
     16381     13800     16384     13800     16387     13800     16390     13800
     16393     13800     16396     13800     16399     13800     16402     13800
     16405     13800     16408     13800     16411     13800     16414     13800
     16417     13800     16420     13800     16423     13800     16426     13800
     16429     13800     16432     13800     16435     13800     16438     13800
     16441     13800     16444     13800     16447     13800     16450     13800
     16453     13800     16456     13800     16459     13800     16462     13800
     16465     13800     16468     13800     16471     13800     16474     13800
     16477     13800     16480     13800     16483     13800     16486     13800
     16489     13800     16492     13800     16495     13800     16498     13800
     16501     13800     16504     13800     16507     13800     16510     13800
     16513     13800     16516     13800     16519     13800     16522     13800
     16525     13800     16528     13800     16531     13800     16534     13800
     16537     13800     16540     13800     16543     13800     16546     13800
     16549     13800     16552     13800     16555     13800     16558     13800
     16561     13800     16564     13800     16567     13800     16570     13800
     16573     13800     16576     13800     16579     13800     16582     13800
     16585     13800     16588     13800     16591     13800     16594     13800
     16597     13800     16600     13800     16603     13800     16606     13800
     16609     13800     16612     13800     16615     13800     16618     13800
     16621     13800     16624     13800     16627     13800     16630     13800
     16633     13800     16636     13800     16639     13800     16642     13800
     16645     13800     16648     13800     16651     13800     16654     13800
     16657     13800     16660     13800     16663     13800     16666     13800
     16669     13800     16672     13800     16675     13800     16678     13800
     16681     13800     16684     13800     16687     13800     16690     13800
     16693     13800     16696     13800     16699     13800     16702     13800
     16705     13800     16708     13800     16711     13800     16714     13800
     16717     13800     16720     13800     16723     13800     16726     13800
     16729     13800     16732     13800     16735     13800     16738     13800
     16741     13800     16744     13800     16747     13800     16750     13800
     16753     13800     16756     13800     16759     13800     16762     13800
     16765     13800     16768     13800     16771     13800     16774     13800
     16777     13800     16780     13800     16783     13800     16786     13800
     16789     13800     16792     13800     16795     13800     16798     13800
     16801     13800     16804     13800     16807     13800     16810     13800
     16813     13800     16816     13800     16819     13800     16822     13800
     16825     13800     16828     13800     16831     13800     16834     13800
     16837     13800     16840     13800     16843     13800     16846     13800
     16849     13800     16852     13800     16855     13800     16858     13800
     16861     13800     16864     13800     16867     13800     16870     13800
     16873     13800     16876     13800     16879     13800     16882     13800
     16885     13800     16888     13800     16891     13800     16894     13800
     16897     13800     16900     13800     16903     13800     16906     13800
     16909     13800     16912     13800     16915     13800     16918     13800
     16921     13800     16924     13800     16927     13800     16930     13800
     16933     13800     16936     13800     16939     13800     16942     13800
     16945     13800     16948     13800     16951     13800     16954     13800
     16957     13800     16960     13800     16963     13800     16966     13800
     16969     13800     16972     13800     16975     13800     16978     13800
     16981     13800     16984     13800     16987     13800     16990     13800
     16993     13800     16996     13800     16999     13800     17002     13800
     17005     13800     17008     13800     17011     13800     17014     13800
     17017     13800     17020     13800     17023     13800     17026     13800
     17029     13800     17032     13800     17035     13800     17038     13800
     17041     13800     17044     13800     17047     13800     17050     13800
     17053     13800     17056     13800     17059     13800     17062     13800
     17065     13800     17068     13800     17071     13800     17074     13800
     17077     13800     17080     13800     17083     13800     17086     13800
     17089     13800     17092     13800     17095     13800     17098     13800
     17101     13800     17104     13800     17107     13800     17110     13800
     17113     13800     17116     13800     17119     13800     17122     13800
     17125     13800     17128     13800     17131     13800     17134     13800
     17137     13800     17140     13800     17143     13800     17146     13800
     17149     13800     17152     13800     17155     13800     17158     13800
     17161     13800     17164     13800     17167     13800     17170     13800
     17173     13800     17176     13800     17179     13800     17182     13800
     17185     13800     17188     13800     17191     13800     17194     13800
     17197     13800     17200     13800     17203     13800     17206     13800
     17209     13800     17212     13800     17215     13800     17218     13800
     17221     13800     17224     13800     17227     13800     17230     13800
     17233     13800     17236     13800     17239     13800     17242     13800
     17245     13800     17248     13800     17251     13800     17254     13800
     17257     13800     17260     13800     17263     13800     17266     13800
     17269     13800     17272     13800     17275     13800     17278     13800
     17281     13800     17284     13800     17287     13800     17290     13800
     17293     13800     17296     13800     17299     13800     17302     13800
     17305     13800     17308     13800     17311     13800     17314     13800
     17317     13800     17320     13800     17323     13800     17326     13800
     17329     13800     17332     13800     17335     13800     17338     13800
     17341     13800     17344     13800     17347     13800     17350     13800
     17353     13800     17356     13800     17359     13800     17362     13800
     17365     13800     17368     13800     17371     13800     17374     13800
     17377     13800     17380     13800     17383     13800     17386     13800
     17389     13800     17392     13800     17395     13800     17398     13800
     17401     13800     17404     13800     17407     13800     17410     13800
     17413     13800     17416     13800     17419     13800     17422     13800
     17425     13800     17428     13800     17431     13800     17434     13800
     17437     13800     17440     13800     17443     13800     17446     13800
     17449     13800     17452     13800     17455     13800     17458     13800
     17461     13800     17464     13800     17467     13800     17470     13800
     17473     13800     17476     13800     17479     13800     17482     13800
     17485     13800     17488     13800     17491     13800     17494     13800
     17497     13800     17500     13800     17503     13800     17506     13800
     17509     13800     17512     13800     17515     13800     17518     13800
     17521     13800     17524     13800     17527     13800     17530     13800
     17533     13800     17536     13800     17539     13800     17542     13800
     17545     13800     17548     13800     17551     13800     17554     13800
     17557     13800     17560     13800     17563     13800     17566     13800
     17569     13800     17572     13800     17575     13800     17578     13800
     17581     13800     17584     13800     17587     13800     17590     13800
     17593     13800     17596     13800     17599     13800     17602     13800
     17605     13800     17608     13800     17611     13800     17614     13800
     17617     13800     17620     13800     17623     13800     17626     13800
     17629     13800     17632     13800     17635     13800     17638     13800
     17641     13800     17644     13800     17647     13800     17650     13800
     17653     13800     17656     13800     17659     13800     17662     13800
     17665     13800     17668     13800     17671     13800     17674     13800
     17677     13800     17680     13800     17683     13800     17686     13800
     17689     13800     17692     13800     17695     13800     17698     13800
     17701     13800     17704     13800     17707     13800     17710     13800
     17713     13800     17716     13800     17719     13800     17722     13800
     17725     13800     17728     13800     17731     13800     17734     13800
     17737     13800     17740     13800     17743     13800     17746     13800
     17749     13800     17752     13800     17755     13800     17758     13800
     17761     13800     17764     13800     17767     13800     17770     13800
     17773     13800     17776     13800     17779     13800     17782     13800
     17785     13800     17788     13800     17791     13800     17794     13800
     17797     13800     17800     13800     17803     13800     17806     13800
     17809     13800     17812     13800     17815     13800     17818     13800
     17821     13800     17824     13800     17827     13800     17830     13800
     17833     13800     17836     13800     17839     13800     17842     13800
     17845     13800     17848     13800     17851     13800     17854     13800
     17857     13800     17860     13800     17863     13800     17866     13800
     17869     13800     17872     13800     17875     13800     17878     13800
     17881     13800     17884     13800     17887     13800     17890     13800
     17893     13800     17896     13800     17899     13800     17902     13800
     17905     13800     17908     13800     17911     13800     17914     13800
     17917     13800     17920     13800     17923     13800     17926     13800
     17929     13800     17932     13800     17935     13800     17938     13800
     17941     13800     17944     13800     17947     13800     17950     13800
     17953     13800     17956     13800     17959     13800     17962     13800
     17965     13800     17968     13800     17971     13800     17974     13800
     17977     13800     17980     13800     17983     13800     17986     13800
     17989     13800     17992     13800     17995     13800     17998     13800
     18001     13800     18004     13800     18007     13800     18010     13800
     18013     13800     18016     13800     18019     13800     18022     13800
     18025     13800     18028     13800     18031     13800     18034     13800
     18037     13800     18040     13800     18043     13800     18046     13800
     18049     13800     18052     13800     18055     13800     18058     13800
     18061     13800     18064     13800     18067     13800     18070     13800
     18073     13800     18076     13800     18079     13800     18082     13800
     18085     13800     18088     13800     18091     13800     18094     13800
     18097     13800     18100     13800     18103     13800     18106     13800
     18109     13800     18112     13800     18115     13800     18118     13800
     18121     13800     18124     13800     18127     13800     18130     13800
     18133     13800     18136     13800     18139     13800     18142     13800
     18145     13800     18148     13800     18151     13800     18154     13800
     18157     13800     18160     13800     18163     13800     18166     13800
     18169     13800     18172     13800     18175     13800     18178     13800
     18181     13800     18184     13800     18187     13800     18190     13800
     18193     13800     18196     13800     18199     13800     18202     13800
     18205     13800     18208     13800     18211     13800     18214     13800
     18217     13800     18220     13800     18223     13800     18226     13800
     18229     13800     18232     13800     18235     13800     18238     13800
     18241     13800     18244     13800     18247     13800     18250     13800
     18253     13800     18256     13800     18259     13800     18262     13800
     18265     13800     18268     13800     18271     13800     18274     13800
     18277     13800     18280     13800     18283     13800     18286     13800
     18289     13800     18292     13800     18295     13800     18298     13800
     18301     13800     18304     13800     18307     13800     18310     13800
     18313     13800     18316     13800     18319     13800     18322     13800
     18325     13800     18328     13800     18331     13800     18334     13800
     18337     13800     18340     13800     18343     13800     18346     13800
     18349     13800     18352     13800     18355     13800     18358     13800
     18361     13800     18364     13800     18367     13800     18370     13800
     18373     13800     18376     13800     18379     13800     18382     13800
     18385     13800     18388     13800     18391     13800     18394     13800
     18397     13800     18400     13800     18403     13800     18406     13800
     18409     13800     18412     13800     18415     13800     18418     13800
     18421     13800     18424     13800     18427     13800     18430     13800
     18433     13800     18436     13800     18439     13800     18442     13800
     18445     13800     18448     13800     18451     13800     18454     13800
     18457     13800     18460     13800     18463     13800     18466     13800
     18469     13800     18472     13800     18475     13800     18478     13800
     18481     13800     18484     13800     18487     13800     18490     13800
     18493     13800     18496     13800     18499     13800     18502     13800
     18505     13800     18508     13800     18511     13800     18514     13800
     18517     13800     18520     13800     18523     13800     18526     13800
     18529     13800     18532     13800     18535     13800     18538     13800
     18541     13800     18544     13800     18547     13800     18550     13800
     18553     13800     18556     13800     18559     13800     18562     13800
     18565     13800     18568     13800     18571     13800     18574     13800
     18577     13800     18580     13800     18583     13800     18586     13800
     18589     13800     18592     13800     18595     13800     18598     13800
     18601     13800     18604     13800     18607     13800     18610     13800
     18613     13800     18616     13800     18619     13800     18622     13800
     18625     13800     18628     13800     18631     13800     18634     13800
     18637     13800     18640     13800     18643     13800     18646     13800
     18649     13800     18652     13800     18655     13800     18658     13800
     18661     13800     18664     13800     18667     13800     18670     13800
     18673     13800     18676     13800     18679     13800     18682     13800
     18685     13800     18688     13800     18691     13800     18694     13800
     18697     13800     18700     13800     18703     13800     18706     13800
     18709     13800     18712     13800     18715     13800     18718     13800
     18721     13800     18724     13800     18727     13800     18730     13800
     18733     13800     18736     13800     18739     13800     18742     13800
     18745     13800     18748     13800     18751     13800     18754     13800
     18757     13800     18760     13800     18763     13800     18766     13800
     18769     13800     18772     13800     18775     13800     18778     13800
     18781     13800     18784     13800     18787     13800     18790     13800
     18793     13800     18796     13800     18799     13800     18802     13800
     18805     13800     18808     13800     18811     13800     18814     13800
     18817     13800     18820     13800     18823     13800     18826     13800
     18829     13800     18832     13800     18835     13800     18838     13800
     18841     13800     18844     13800     18847     13800     18850     13800
     18853     13800     18856     13800     18859     13800     18862     13800
     18865     13800     18868     13800     18871     13800     18874     13800
     18877     13800     18880     13800     18883     13800     18886     13800
     18889     13800     18892     13800     18895     13800     18898     13800
     18901     13800     18904     13800     18907     13800     18910     13800
     18913     13800     18916     13800     18919     13800     18922     13800
     18925     13800     18928     13800     18931     13800     18934     13800
     18937     13800     18940     13800     18943     13800     18946     13800
     18949     13800     18952     13800     18955     13800     18958     13800
     18961     13800     18964     13800     18967     13800     18970     13800
     18973     13800     18976     13800     18979     13800     18982     13800
     18985     13800     18988     13800     18991     13800     18994     13800
     18997     13800     19000     13800     19003     13800     19006     13800
     19009     13800     19012     13800     19015     13800     19018     13800
     19021     13800     19024     13800     19027     13800     19030     13800
     19033     13800     19036     13800     19039     13800     19042     13800
     19045     13800     19048     13800     19051     13800     19054     13800
     19057     13800     19060     13800     19063     13800     19066     13800
     19069     13800     19072     13800     19075     13800     19078     13800
     19081     13800     19084     13800     19087     13800     19090     13800
     19093     13800     19096     13800     19099     13800     19102     13800
     19105     13800     19108     13800     19111     13800     19114     13800
     19117     13800     19120     13800     19123     13800     19126     13800
     19129     13800     19132     13800     19135     13800     19138     13800
     19141     13800     19144     13800     19147     13800     19150     13800
     19153     13800     19156     13800     19159     13800     19162     13800
     19165     13800     19168     13800     19171     13800     19174     13800
     19177     13800     19180     13800     19183     13800     19186     13800
     19189     13800     19192     13800     19195     13800     19198     13800
     19201     13800     19204     13800     19207     13800     19210     13800
     19213     13800     19216     13800     19219     13800     19222     13800
     19225     13800     19228     13800     19231     13800     19234     13800
     19237     13800     19240     13800     19243     13800     19246     13800
     19249     13800     19252     13800     19255     13800     19258     13800
     19261     13800     19264     13800     19267     13800     19270     13800
     19273     13800     19276     13800     19279     13800     19282     13800
     19285     13800     19288     13800     19291     13800     19294     13800
     19297     13800     19300     13800     19303     13800     19306     13800
     19309     13800     19312     13800     19315     13800     19318     13800
     19321     13800     19324     13800     19327     13800     19330     13800
     19333     13800     19336     13800     19339     13800     19342     13800
     19345     13800     19348     13800     19351     13800     19354     13800
     19357     13800     19360     13800     19363     13800     19366     13800
     19369     13800     19372     13800     19375     13800     19378     13800
     19381     13800     19384     13800     19387     13800     19390     13800
     19393     13800     19396     13800     19399     13800     19402     13800
     19405     13800     19408     13800     19411     13800     19414     13800
     19417     13800     19420     13800     19423     13800     19426     13800
     19429     13800     19432     13800     19435     13800     19438     13800
     19441     13800     19444     13800     19447     13800     19450     13800
     19453     13800     19456     13800     19459     13800     19462     13800
     19465     13800     19468     13800     19471     13800     19474     13800
     19477     13800     19480     13800     19483     13800     19486     13800
     19489     13800     19492     13800     19495     13800     19498     13800
     19501     13800     19504     13800     19507     13800     19510     13800
     19513     13800     19516     13800     19519     13800     19522     13800
     19525     13800     19528     13800     19531     13800     19534     13800
     19537     13800     19540     13800     19543     13800     19546     13800
     19549     13800     19552     13800     19555     13800     19558     13800
     19561     13800     19564     13800     19567     13800     19570     13800
     19573     13800     19576     13800     19579     13800     19582     13800
     19585     13800     19588     13800     19591     13800     19594     13800
     19597     13800     19600     13800     19603     13800     19606     13800
     19609     13800     19612     13800     19615     13800     19618     13800
     19621     13800     19624     13800     19627     13800     19630     13800
     19633     13800     19636     13800     19639     13800     19642     13800
     19645     13800     19648     13800     19651     13800     19654     13800
     19657     13800     19660     13800     19663     13800     19666     13800
     19669     13800     19672     13800     19675     13800     19678     13800
     19681     13800     19684     13800     19687     13800     19690     13800
     19693     13800     19696     13800     19699     13800     19702     13800
     19705     13800     19708     13800     19711     13800     19714     13800
     19717     13800     19720     13800     19723     13800     19726     13800
     19729     13800     19732     13800     19735     13800     19738     13800
     19741     13800     19744     13800     19747     13800     19750     13800
     19753     13800     19756     13800     19759     13800     19762     13800
     19765     13800     19768     13800     19771     13800     19774     13800
     19777     13800     19780     13800     19783     13800     19786     13800
     19789     13800     19792     13800     19795     13800     19798     13800
     19801     13800     19804     13800     19807     13800     19810     13800
     19813     13800     19816     13800     19819     13800     19822     13800
     19825     13800     19828     13800     19831     13800     19834     13800
     19837     13800     19840     13800     19843     13800     19846     13800
     19849     13800     19852     13800     19855     13800     19858     13800
     19861     13800     19864     13800     19867     13800     19870     13800
     19873     13800     19876     13800     19879     13800     19882     13800
     19885     13800     19888     13800     19891     13800     19894     13800
     19897     13800     19900     13800     19903     13800     19906     13800
     19909     13800     19912     13800     19915     13800     19918     13800
     19921     13800     19924     13800     19927     13800     19930     13800
     19933     13800     19936     13800     19939     13800     19942     13800
     19945     13800     19948     13800     19951     13800     19954     13800
     19957     13800     19960     13800     19963     13800     19966     13800
     19969     13800     19972     13800     19975     13800     19978     13800
     19981     13800     19984     13800     19987     13800     19990     13800
     19993     13800     19996     13800     19999     13800     20002     13800
     20005     13800     20008     13800     20011     13800     20014     13800
     20017     13800     20020     13800     20023     13800     20026     13800
     20029     13800     20032     13800     20035     13800     20038     13800
     20041     13800     20044     13800     20047     13800     20050     13800
     20053     13800     20056     13800     20059     13800     20062     13800
     20065     13800     20068     13800     20071     13800     20074     13800
     20077     13800     20080     13800     20083     13800     20086     13800
     20089     13800     20092     13800     20095     13800     20098     13800
     20101     13800     20104     13800     20107     13800     20110     13800
     20113     13800     20116     13800     20119     13800     20122     13800
     20125     13800     20128     13800     20131     13800     20134     13800
     20137     13800     20140     13800     20143     13800     20146     13800
     20149     13800     20152     13800     20155     13800     20158     13800
     20161     13800     20164     13800     20167     13800     20170     13800
     20173     13800     20176     13800     20179     13800     20182     13800
     20185     13800     20188     13800     20191     13800     20194     13800
     20197     13800     20200     13800     20203     13800     20206     13800
     20209     13800     20212     13800     20215     13800     20218     13800
     20221     13800     20224     13800     20227     13800     20230     13800
     20233     13800     20236     13800     20239     13800     20242     13800
     20245     13800     20248     13800     20251     13800     20254     13800
     20257     13800     20260     20259     20263     20259     20266     20259
     20269     20259     20272     20259     20275     20259     20278     20259
     20281     20259     20284     20259     20287     20259     20290     20259
     20293     20259     20296     20259     20299     20259     20302     20259
     20305     20259     20308     20259     20311     20259     20314     20259
     20317     20259     20320     20259     20323     20259     20326     20259
     20329     20259     20332     20259     20335     20259     20338     20259
     20341     20259     20344     20259     20347     20259     20350     20259
     20353     20259     20356     20259     20359     20259     20362     20259
     20365     20259     20368     20259     20371     20259     20374     20259
     20377     20259     20380     20259     20383     20259     20386     20259
     20389     20259     20392     20259     20395     20259     20398     20259
     20401     20259     20404     20259     20407     20259     20410     20259
     20413     20259     20416     20259     20419     20259     20422     20259
     20425     20259     20428     20259     20431     20259     20434     20259
     20437     20259     20440     20259     20443     20259     20446     20259
     20449     20259     20452     20259     20455     20259     20458     20259
     20461     20259     20464     20259     20467     20259     20470     20259
     20473     20259     20476     20259     20479     20259     20482     20259
     20485     20259     20488     20259     20491     20259     20494     20259
     20497     20259     20500     20259     20503     20259     20506     20259
     20509     20259     20512     20259     20515     20259     20518     20259
     20521     20259     20524     20259     20527     20259     20530     20259
     20533     20259     20536     20259     20539     20259     20542     20259
     20545     20259     20548     20259     20551     20259     20554     20259
     20557     20259     20560     20259     20563     20259     20566     20259
     20569     20259     20572     20259     20575     20259     20578     20259
     20581     20259     20584     20259     20587     20259     20590     20259
     20593     20259     20596     20259     20599     20259     20602     20259
     20605     20259     20608     20259     20611     20259     20614     20259
     20617     20259     20620     20259     20623     20259     20626     20259
     20629     20259     20632     20259     20635     20259     20638     20259
     20641     20259     20644     20259     20647     20259     20650     20259
     20653     20259     20656     20259     20659     20259     20662     20259
     20665     20259     20668     20259     20671     20259     20674     20259
     20677     20259     20680     20259     20683     20259     20686     20259
     20689     20259     20692     20259     20695     20259     20698     20259
     20701     20259     20704     20259     20707     20259     20710     20259
     20713     20259     20716     20259     20719     20259     20722     20259
     20725     20259     20728     20259     20731     20259     20734     20259
     20737     20259     20740     20259     20743     20259     20746     20259
     20749     20259     20752     20259     20755     20259     20758     20259
     20761     20259     20764     20259     20767     20259     20770     20259
     20773     20259     20776     20259     20779     20259     20782     20259
     20785     20259     20788     20259     20791     20259     20794     20259
     20797     20259     20800     20259     20803     20259     20806     20259
     20809     20259     20812     20259     20815     20259     20818     20259
     20821     20259     20824     20259     20827     20259     20830     20259
     20833     20259     20836     20259     20839     20259     20842     20259
     20845     20259     20848     20259     20851     20259     20854     20259
     20857     20259     20860     20259     20863     20259     20866     20259
     20869     20259     20872     20259     20875     20259     20878     20259
     20881     20259     20884     20259     20887     20259     20890     20259
     20893     20259     20896     20259     20899     20259     20902     20259
     20905     20259     20908     20259     20911     20259     20914     20259
     20917     20259     20920     20259     20923     20259     20926     20259
     20929     20259     20932     20259     20935     20259     20938     20259
     20941     20259     20944     20259     20947     20259     20950     20259
     20953     20259     20956     20259     20959     20259     20962     20259
     20965     20259     20968     20259     20971     20259     20974     20259
     20977     20259     20980     20259     20983     20259     20986     20259
     20989     20259     20992     20259     20995     20259     20998     20259
     21001     20259     21004     20259     21007     20259     21010     20259
     21013     20259     21016     20259     21019     20259     21022     20259
     21025     20259     21028     20259     21031     20259     21034     20259
     21037     20259     21040     20259     21043     20259     21046     20259
     21049     20259     21052     20259     21055     20259     21058     20259
     21061     20259     21064     20259     21067     20259     21070     20259
     21073     20259     21076     20259     21079     20259     21082     20259
     21085     20259     21088     20259     21091     20259     21094     20259
     21097     20259     21100     20259     21103     20259     21106     20259
     21109     20259     21112     20259     21115     20259     21118     20259
     21121     20259     21124     20259     21127     20259     21130     20259
     21133     20259     21136     20259     21139     20259     21142     20259
     21145     20259     21148     20259     21151     20259     21154     20259
     21157     20259     21160     20259     21163     20259     21166     20259
     21169     20259     21172     20259     21175     20259     21178     20259
     21181     20259     21184     20259     21187     20259     21190     20259
     21193     20259     21196     20259     21199     20259     21202     20259
     21205     20259     21208     20259     21211     20259     21214     20259
     21217     20259     21220     20259     21223     20259     21226     20259
     21229     20259     21232     20259     21235     20259     21238     20259
     21241     20259     21244     20259     21247     20259     21250     20259
     21253     20259     21256     20259     21259     20259     21262     20259
     21265     20259     21268     20259     21271     20259     21274     20259
     21277     20259     21280     20259     21283     20259     21286     20259
     21289     20259     21292     20259     21295     20259     21298     20259
     21301     20259     21304     20259     21307     20259     21310     20259
     21313     20259     21316     20259     21319     20259     21322     20259
     21325     20259     21328     20259     21331     20259     21334     20259
     21337     20259     21340     20259     21343     20259     21346     20259
     21349     20259     21352     20259     21355     20259     21358     20259
     21361     20259     21364     20259     21367     20259     21370     20259
     21373     20259     21376     20259     21379     20259     21382     20259
     21385     20259     21388     20259     21391     20259     21394     20259
     21397     20259     21400     20259     21403     20259     21406     20259
     21409     20259     21412     20259     21415     20259     21418     20259
     21421     20259     21424     20259     21427     20259     21430     20259
     21433     20259     21436     20259     21439     20259     21442     20259
     21445     20259     21448     20259     21451     20259     21454     20259
     21457     20259     21460     20259     21463     20259     21466     20259
     21469     20259     21472     20259     21475     20259     21478     20259
     21481     20259     21484     20259     21487     20259     21490     20259
     21493     20259     21496     20259     21499     20259     21502     20259
     21505     20259     21508     20259     21511     20259     21514     20259
     21517     20259     21520     20259     21523     20259     21526     20259
     21529     20259     21532     20259     21535     20259     21538     20259
     21541     20259     21544     20259     21547     20259     21550     20259
     21553     20259     21556     20259     21559     20259     21562     20259
     21565     20259     21568     20259     21571     20259     21574     20259
     21577     20259     21580     20259     21583     20259     21586     20259
     21589     20259     21592     20259     21595     20259     21598     20259
     21601     20259     21604     20259     21607     20259     21610     20259
     21613     20259     21616     20259     21619     20259     21622     20259
     21625     20259     21628     20259     21631     20259     21634     20259
     21637     20259     21640     20259     21643     20259     21646     20259
     21649     20259     21652     20259     21655     20259     21658     20259
     21661     20259     21664     20259     21667     20259     21670     20259
     21673     20259     21676     20259     21679     20259     21682     20259
     21685     20259     21688     20259     21691     20259     21694     20259
     21697     20259     21700     20259     21703     20259     21706     20259
     21709     20259     21712     20259     21715     20259     21718     20259
     21721     20259     21724     20259     21727     20259     21730     20259
     21733     20259     21736     20259     21739     20259     21742     20259
     21745     20259     21748     20259     21751     20259     21754     20259
     21757     20259     21760     20259     21763     20259     21766     20259
     21769     20259     21772     20259     21775     20259     21778     20259
     21781     20259     21784     20259     21787     20259     21790     20259
     21793     20259     21796     20259     21799     20259     21802     20259
     21805     20259     21808     20259     21811     20259     21814     20259
     21817     20259     21820     20259     21823     20259     21826     20259
     21829     20259     21832     20259     21835     20259     21838     20259
     21841     20259     21844     20259     21847     20259     21850     20259
     21853     20259     21856     20259     21859     20259     21862     20259
     21865     20259     21868     20259     21871     20259     21874     20259
     21877     20259     21880     20259     21883     20259     21886     20259
     21889     20259     21892     20259     21895     20259     21898     20259
     21901     20259     21904     20259     21907     20259     21910     20259
     21913     20259     21916     20259     21919     20259     21922     20259
     21925     20259     21928     20259     21931     20259     21934     20259
     21937     20259     21940     20259     21943     20259     21946     20259
     21949     20259     21952     20259     21955     20259     21958     20259
     21961     20259     21964     20259     21967     20259     21970     20259
     21973     20259     21976     20259     21979     20259     21982     20259
     21985     20259     21988     20259     21991     20259     21994     20259
     21997     20259     22000     20259     22003     20259     22006     20259
     22009     20259     22012     20259     22015     20259     22018     20259
     22021     20259     22024     20259     22027     20259     22030     20259
     22033     20259     22036     20259     22039     20259     22042     20259
     22045     20259     22048     20259     22051     20259     22054     20259
     22057     20259     22060     20259     22063     20259     22066     20259
     22069     20259     22072     20259     22075     20259     22078     20259
     22081     20259     22084     20259     22087     20259     22090     20259
     22093     20259     22096     20259     22099     20259     22102     20259
     22105     20259     22108     20259     22111     20259     22114     20259
     22117     20259     22120     20259     22123     20259     22126     20259
     22129     20259     22132     20259     22135     20259     22138     20259
     22141     20259     22144     20259     22147     20259     22150     20259
     22153     20259     22156     20259     22159     20259     22162     20259
     22165     20259     22168     20259     22171     20259     22174     20259
     22177     20259     22180     20259     22183     20259     22186     20259
     22189     20259     22192     20259     22195     20259     22198     20259
     22201     20259     22204     20259     22207     20259     22210     20259
     22213     20259     22216     20259     22219     20259     22222     20259
     22225     20259     22228     20259     22231     20259     22234     20259
     22237     20259     22240     20259     22243     20259     22246     20259
     22249     20259     22252     20259     22255     20259     22258     20259
     22261     20259     22264     20259     22267     20259     22270     20259
     22273     20259     22276     20259     22279     20259     22282     20259
     22285     20259     22288     20259     22291     20259     22294     20259
     22297     20259     22300     20259     22303     20259     22306     20259
     22309     20259     22312     20259     22315     20259     22318     20259
     22321     20259     22324     20259     22327     20259     22330     20259
     22333     20259     22336     20259     22339     20259     22342     20259
     22345     20259     22348     20259     22351     20259     22354     20259
     22357     20259     22360     20259     22363     20259     22366     20259
     22369     20259     22372     20259     22375     20259     22378     20259
     22381     20259     22384     20259     22387     20259     22390     20259
     22393     20259     22396     20259     22399     20259     22402     20259
     22405     20259     22408     20259     22411     20259     22414     20259
     22417     20259     22420     20259     22423     20259     22426     20259
     22429     20259     22432     20259     22435     20259     22438     20259
     22441     20259     22444     20259     22447     20259     22450     20259
     22453     20259     22456     20259     22459     20259     22462     20259
     22465     20259     22468     20259     22471     20259     22474     20259
     22477     20259     22480     20259     22483     20259     22486     20259
     22489     20259     22492     20259     22495     20259     22498     20259
     22501     20259     22504     20259     22507     20259     22510     20259
     22513     20259     22516     20259     22519     20259     22522     20259
     22525     20259     22528     20259     22531     20259     22534     20259
     22537     20259     22540     20259     22543     20259     22546     20259
     22549     20259     22552     20259     22555     20259     22558     20259
     22561     20259     22564     20259     22567     20259     22570     20259
     22573     20259     22576     20259     22579     20259     22582     20259
     22585     20259     22588     20259     22591     20259     22594     20259
     22597     20259     22600     20259     22603     20259     22606     20259
     22609     20259     22612     20259     22615     20259     22618     20259
     22621     20259     22624     20259     22627     20259     22630     20259
     22633     20259     22636     20259     22639     20259     22642     20259
     22645     20259     22648     20259     22651     20259     22654     20259
     22657     20259     22660     20259     22663     20259     22666     20259
     22669     20259     22672     20259     22675     20259     22678     20259
     22681     20259     22684     20259     22687     20259     22690     20259
     22693     20259     22696     20259     22699     20259     22702     20259
     22705     20259     22708     20259     22711     20259     22714     20259
     22717     20259     22720     20259     22723     20259     22726     20259
     22729     20259     22732     20259     22735     20259     22738     20259
     22741     20259     22744     20259     22747     20259     22750     20259
     22753     20259     22756     20259     22759     20259     22762     20259
     22765     20259     22768     20259     22771     20259     22774     20259
     22777     20259     22780     20259     22783     20259     22786     20259
     22789     20259     22792     20259     22795     20259     22798     20259
     22801     20259     22804     20259     22807     20259     22810     20259
     22813     20259     22816     20259     22819     20259     22822     20259
     22825     20259     22828     20259     22831     20259     22834     20259
     22837     20259     22840     20259     22843     20259     22846     20259
     22849     20259     22852     20259     22855     20259     22858     20259
     22861     20259     22864     20259     22867     20259     22870     20259
     22873     20259     22876     20259     22879     20259     22882     20259
     22885     20259     22888     20259     22891     20259     22894     20259
     22897     20259     22900     20259     22903     20259     22906     20259
     22909     20259     22912     20259     22915     20259     22918     20259
     22921     20259     22924     20259     22927     20259     22930     20259
     22933     20259     22936     20259     22939     20259     22942     20259
     22945     20259     22948     20259     22951     20259     22954     20259
     22957     20259     22960     20259     22963     20259     22966     20259
     22969     20259     22972     20259     22975     20259     22978     20259
     22981     20259     22984     20259     22987     20259     22990     20259
     22993     20259     22996     20259     22999     20259     23002     20259
     23005     20259     23008     20259     23011     20259     23014     20259
     23017     20259     23020     20259     23023     20259     23026     20259
     23029     20259     23032     20259     23035     20259     23038     20259
     23041     20259     23044     20259     23047     20259     23050     20259
     23053     20259     23056     20259     23059     20259     23062     20259
     23065     20259     23068     20259     23071     20259     23074     20259
     23077     20259     23080     20259     23083     20259     23086     20259
     23089     20259     23092     20259     23095     20259     23098     20259
     23101     20259     23104     20259     23107     20259     23110     20259
     23113     20259     23116     20259     23119     20259     23122     20259
     23125     20259     23128     20259     23131     20259     23134     20259
     23137     20259     23140     20259     23143     20259     23146     20259
     23149     20259     23152     20259     23155     20259     23158     20259
     23161     20259     23164     20259     23167     20259     23170     20259
     23173     20259     23176     20259     23179     20259     23182     20259
     23185     20259     23188     20259     23191     20259     23194     20259
     23197     20259     23200     20259     23203     20259     23206     20259
     23209     20259     23212     20259     23215     20259     23218     20259
     23221     20259     23224     20259     23227     20259     23230     20259
     23233     20259     23236     20259     23239     20259     23242     20259
     23245     20259     23248     20259     23251     20259     23254     20259
     23257     20259     23260     20259     23263     20259     23266     20259
     23269     20259     23272     20259     23275     20259     23278     20259
     23281     20259     23284     20259     23287     20259     23290     20259
     23293     20259     23296     20259     23299     20259     23302     20259
     23305     20259     23308     20259     23311     20259     23314     20259
     23317     20259     23320     20259     23323     20259     23326     20259
     23329     20259     23332     20259     23335     20259     23338     20259
     23341     20259     23344     20259     23347     20259     23350     20259
     23353     20259     23356     20259     23359     20259     23362     20259
     23365     20259     23368     20259     23371     20259     23374     20259
     23377     20259     23380     20259     23383     20259     23386     20259
     23389     20259     23392     20259     23395     20259     23398     20259
     23401     20259     23404     20259     23407     20259     23410     20259
     23413     20259     23416     20259     23419     20259     23422     20259
     23425     20259     23428     20259     23431     20259     23434     20259
     23437     20259     23440     20259     23443     20259     23446     20259
     23449     20259     23452     20259     23455     20259     23458     20259
     23461     20259     23464     20259     23467     20259     23470     20259
     23473     20259     23476     20259     23479     20259     23482     20259
     23485     20259     23488     20259     23491     20259     23494     20259
     23497     20259     23500     20259     23503     20259     23506     20259
     23509     20259     23512     20259     23515     20259     23518     20259
     23521     20259     23524     20259     23527     20259     23530     20259
     23533     20259     23536     20259     23539     20259     23542     20259
     23545     20259     23548     20259     23551     20259     23554     20259
     23557     20259     23560     20259     23563     20259     23566     20259
     23569     20259     23572     20259     23575     20259     23578     20259
     23581     20259     23584     20259     23587     20259     23590     20259
     23593     20259     23596     20259     23599     20259     23602     20259
     23605     20259     23608     20259     23611     20259     23614     20259
     23617     20259     23620     20259     23623     20259     23626     20259
     23629     20259     23632     20259     23635     20259     23638     20259
     23641     20259     23644     20259     23647     20259     23650     20259
     23653     20259     23656     20259     23659     20259     23662     20259
     23665     20259     23668     20259     23671     20259     23674     20259
     23677     20259     23680     20259     23683     20259     23686     20259
     23689     20259     23692     20259     23695     20259     23698     20259
     23701     20259     23704     20259     23707     20259     23710     20259
     23713     20259     23716     20259     23719     20259     23722     20259
     23725     20259     23728     20259     23731     20259     23734     20259
     23737     20259     23740     20259     23743     20259     23746     20259
     23749     20259     23752     20259     23755     20259     23758     20259
     23761     20259     23764     20259     23767     20259     23770     20259
     23773     20259     23776     20259     23779     20259     23782     20259
     23785     20259     23788     20259     23791     20259     23794     20259
     23797     20259     23800     20259     23803     20259     23806     20259
     23809     20259     23812     20259     23815     20259     23818     20259
     23821     20259     23824     20259     23827     20259     23830     20259
     23833     20259     23836     20259     23839     20259     23842     20259
     23845     20259     23848     20259     23851     20259     23854     20259
     23857     20259     23860     20259     23863     20259     23866     20259
     23869     20259     23872     20259     23875     20259     23878     20259
     23881     20259     23884     20259     23887     20259     23890     20259
     23893     20259     23896     20259     23899     20259     23902     20259
     23905     20259     23908     20259     23911     20259     23914     20259
     23917     20259     23920     20259     23923     20259     23926     20259
     23929     20259     23932     20259     23935     20259     23938     20259
     23941     20259     23944     20259     23947     20259     23950     20259
     23953     20259     23956     20259     23959     20259     23962     20259
     23965     20259     23968     20259     23971     20259     23974     20259
     23977     20259     23980     20259     23983     20259     23986     20259
     23989     20259     23992     20259     23995     20259     23998     20259
     24001     20259     24004     20259     24007     20259     24010     20259
     24013     20259     24016     20259     24019     20259     24022     20259
     24025     20259     24028     20259     24031     20259     24034     20259
     24037     20259     24040     20259     24043     20259     24046     20259
     24049     20259     24052     20259     24055     20259     24058     20259
     24061     20259     24064     20259     24067     20259     24070     20259
     24073     20259     24076     20259     24079     20259     24082     20259
     24085     20259     24088     20259     24091     20259     24094     20259
     24097     20259     24100     20259     24103     20259     24106     20259
     24109     20259     24112     20259     24115     20259     24118     20259
     24121     20259     24124     20259     24127     20259     24130     20259
     24133     20259     24136     20259     24139     20259     24142     20259
     24145     20259     24148     20259     24151     20259     24154     20259
     24157     20259     24160     20259     24163     20259     24166     20259
     24169     20259     24172     20259     24175     20259     24178     20259
     24181     20259     24184     20259     24187     20259     24190     20259
     24193     20259     24196     20259     24199     20259     24202     20259
     24205     20259     24208     20259     24211     20259     24214     20259
     24217     20259     24220     20259     24223     20259     24226     20259
     24229     20259     24232     20259     24235     20259     24238     20259
     24241     20259     24244     20259     24247     20259     24250     20259
     24253     20259     24256     20259     24259     20259     24262     20259
     24265     20259     24268     20259     24271     20259     24274     20259
     24277     20259     24280     20259     24283     20259     24286     20259
     24289     20259     24292     20259     24295     20259     24298     20259
     24301     20259     24304     20259     24307     20259     24310     20259
     24313     20259     24316     20259     24319     20259     24322     20259
     24325     20259     24328     20259     24331     20259     24334     20259
     24337     20259     24340     20259     24343     20259     24346     20259
     24349     20259     24352     20259     24355     20259     24358     20259
     24361     20259     24364     20259     24367     20259     24370     20259
     24373     20259     24376     20259     24379     20259     24382     20259
     24385     20259     24388     20259     24391     20259     24394     20259
     24397     20259     24400     20259     24403     20259     24406     20259
     24409     20259     24412     20259     24415     20259     24418     20259
     24421     20259     24424     20259     24427     20259     24430     20259
     24433     20259     24436     20259     24439     20259     24442     20259
     24445     20259     24448     20259     24451     20259     24454     20259
     24457     20259     24460     20259     24463     20259     24466     20259
     24469     20259     24472     20259     24475     20259     24478     20259
     24481     20259     24484     20259     24487     20259     24490     20259
     24493     20259     24496     20259     24499     20259     24502     20259
     24505     20259     24508     20259     24511     20259     24514     20259
     24517     20259     24520     20259     24523     20259     24526     20259
     24529     20259     24532     20259     24535     20259     24538     20259
     24541     20259     24544     20259     24547     20259     24550     20259
     24553     20259     24556     20259     24559     20259     24562     20259
     24565     20259     24568     20259     24571     20259     24574     20259
     24577     20259     24580     20259     24583     20259     24586     20259
     24589     20259     24592     20259     24595     20259     24598     20259
     24601     20259     24604     20259     24607     20259     24610     20259
     24613     20259     24616     20259     24619     20259     24622     20259
     24625     20259     24628     20259     24631     20259     24634     20259
     24637     20259     24640     20259     24643     20259     24646     20259
     24649     20259     24652     20259     24655     20259     24658     20259
     24661     20259     24664     20259     24667     20259     24670     20259
     24673     20259     24676     20259     24679     20259     24682     20259
     24685     20259     24688     20259     24691     20259     24694     20259
     24697     20259     24700     20259     24703     20259     24706     20259
     24709     20259     24712     20259     24715     20259     24718     20259
     24721     20259     24724     20259     24727     20259     24730     20259
     24733     20259     24736     20259     24739     20259     24742     20259
     24745     20259     24748     20259     24751     20259     24754     20259
     24757     20259     24760     20259     24763     20259     24766     20259
     24769     20259     24772     20259     24775     20259     24778     20259
     24781     20259     24784     20259     24787     20259     24790     20259
     24793     20259     24796     20259     24799     20259     24802     20259
     24805     20259     24808     20259     24811     20259     24814     20259
     24817     20259     24820     20259     24823     20259     24826     20259
     24829     20259     24832     20259     24835     20259     24838     20259
     24841     20259     24844     20259     24847     20259     24850     20259
     24853     20259     24856     20259     24859     20259     24862     20259
     24865     20259     24868     20259     24871     20259     24874     20259
     24877     20259     24880     20259     24883     20259     24886     20259
     24889     20259     24892     20259     24895     20259     24898     20259
     24901     20259     24904     20259     24907     20259     24910     20259
     24913     20259     24916     20259     24919     20259     24922     20259
     24925     20259     24928     20259     24931     20259     24934     20259
     24937     20259     24940     20259     24943     20259     24946     20259
     24949     20259     24952     20259     24955     20259     24958     20259
     24961     20259     24964     20259     24967     20259     24970     20259
     24973     20259     24976     20259     24979     20259     24982     20259
     24985     20259     24988     20259     24991     20259     24994     20259
     24997     20259     25000     20259     25003     20259     25006     20259
     25009     20259     25012     20259     25015     20259     25018     20259
     25021     20259     25024     20259     25027     20259     25030     20259
     25033     20259     25036     20259     25039     20259     25042     20259
     25045     20259     25048     20259     25051     20259     25054     20259
     25057     20259     25060     20259     25063     20259     25066     20259
     25069     20259     25072     20259     25075     20259     25078     20259
     25081     20259     25084     20259     25087     20259     25090     20259
     25093     20259     25096     20259     25099     20259     25102     20259
     25105     20259     25108     20259     25111     20259     25114     20259
     25117     20259     25120     20259     25123     20259     25126     20259
     25129     20259     25132     20259     25135     20259     25138     20259
     25141     20259     25144     20259     25147     20259     25150     20259
     25153     20259     25156     20259     25159     20259     25162     20259
     25165     20259     25168     20259     25171     20259     25174     20259
     25177     20259     25180     20259     25183     20259     25186     20259
     25189     20259     25192     20259     25195     20259     25198     20259
     25201     20259     25204     20259     25207     20259     25210     20259
     25213     20259     25216     20259     25219     20259     25222     20259
     25225     20259     25228     20259     25231     20259     25234     20259
     25237     20259     25240     20259     25243     20259     25246     20259
     25249     20259     25252     20259     25255     20259     25258     20259
     25261     20259     25264     20259     25267     20259     25270     20259
     25273     20259     25276     20259     25279     20259     25282     20259
     25285     20259     25288     20259     25291     20259     25294     20259
     25297     20259     25300     20259     25303     20259     25306     20259
     25309     20259     25312     20259     25315     20259     25318     20259
     25321     20259     25324     20259     25327     20259     25330     20259
     25333     20259     25336     20259     25339     20259     25342     20259
     25345     20259     25348     20259     25351     20259     25354     20259
     25357     20259     25360     20259     25363     20259     25366     20259
     25369     20259     25372     20259     25375     20259     25378     20259
     25381     20259     25384     20259     25387     20259     25390     20259
     25393     20259     25396     20259     25399     20259     25402     20259
     25405     20259     25408     20259     25411     20259     25414     20259
     25417     20259     25420     20259     25423     20259     25426     20259
     25429     20259     25432     20259     25435     20259     25438     20259
     25441     20259     25444     20259     25447     20259     25450     20259
     25453     20259     25456     20259     25459     20259     25462     20259
     25465     20259     25468     20259     25471     20259     25474     20259
     25477     20259     25480     20259     25483     20259     25486     20259
     25489     20259     25492     20259     25495     20259     25498     20259
     25501     20259     25504     20259     25507     20259     25510     20259
     25513     20259     25516     20259     25519     20259     25522     20259
     25525     20259     25528     20259     25531     20259     25534     20259
     25537     20259     25540     20259     25543     20259     25546     20259
     25549     20259     25552     20259     25555     20259     25558     20259
     25561     20259     25564     20259     25567     20259     25570     20259
     25573     20259     25576     20259     25579     20259     25582     20259
     25585     20259     25588     20259     25591     20259     25594     20259
     25597     20259     25600     20259     25603     20259     25606     20259
     25609     20259     25612     20259     25615     20259     25618     20259
     25621     20259     25624     20259     25627     20259     25630     20259
     25633     20259     25636     20259     25639     20259     25642     20259
     25645     20259     25648     20259     25651     20259     25654     20259
     25657     20259     25660     20259     25663     20259     25666     20259
     25669     20259     25672     20259     25675     20259     25678     20259
     25681     20259     25684     20259     25687     20259     25690     20259
     25693     20259     25696     20259     25699     20259     25702     20259
     25705     20259     25708     20259     25711     20259     25714     20259
     25717     20259     25720     20259     25723     20259     25726     20259
     25729     20259     25732     20259     25735     20259     25738     20259
     25741     20259     25744     20259     25747     20259     25750     20259
     25753     20259     25756     20259     25759     20259     25762     20259
     25765     20259     25768     20259     25771     20259     25774     20259
     25777     20259     25780     20259     25783     20259     25786     20259
     25789     20259     25792     20259     25795     20259     25798     20259
     25801     20259     25804     20259     25807     20259     25810     20259
     25813     20259     25816     20259     25819     20259     25822     20259
     25825     20259     25828     20259     25831     20259     25834     20259
     25837     20259     25840     20259     25843     20259     25846     20259
     25849     20259     25852     20259     25855     20259     25858     20259
     25861     20259     25864     20259     25867     20259     25870     20259
     25873     20259     25876     20259     25879     20259     25882     20259
     25885     20259     25888     20259     25891     20259     25894     20259
     25897     20259     25900     20259     25903     20259     25906     20259
     25909     20259     25912     20259     25915     20259     25918     20259
     25921     20259     25924     20259     25927     20259     25930     20259
     25933     20259     25936     20259     25939     20259     25942     20259
     25945     20259     25948     20259     25951     20259     25954     20259
     25957     20259     25960     20259     25963     20259     25966     20259
     25969     20259     25972     20259     25975     20259     25978     20259
     25981     20259     25984     20259     25987     20259     25990     20259
     25993     20259     25996     20259     25999     20259     26002     20259
     26005     20259     26008     20259     26011     20259     26014     20259
     26017     20259     26020     20259     26023     20259     26026     20259
     26029     20259     26032     20259     26035     20259     26038     20259
     26041     20259     26044     20259     26047     20259     26050     20259
     26053     20259     26056     20259     26059     20259     26062     20259
     26065     20259     26068     20259     26071     20259     26074     20259
     26077     20259     26080     20259     26083     20259     26086     20259
     26089     20259     26092     20259     26095     20259     26098     20259
     26101     20259     26104     20259     26107     20259     26110     20259
     26113     20259     26116     20259     26119     20259     26122     20259
     26125     20259     26128     20259     26131     20259     26134     20259
     26137     20259     26140     20259     26143     20259     26146     20259
     26149     20259     26152     20259     26155     20259     26158     20259
     26161     20259     26164     20259     26167     20259     26170     20259
     26173     20259     26176     20259     26179     20259     26182     20259
     26185     20259     26188     20259     26191     20259     26194     20259
     26197     20259     26200     20259     26203     20259     26206     20259
     26209     20259     26212     20259     26215     20259     26218     20259
     26221     20259     26224     20259     26227     20259     26230     20259
     26233     20259     26236     20259     26239     20259     26242     20259
     26245     20259     26248     20259     26251     20259     26254     20259
     26257     20259     26260     20259     26263     20259     26266     20259
     26269     20259     26272     20259     26275     20259     26278     20259
     26281     20259     26284     20259     26287     20259     26290     20259
     26293     20259     26296     20259     26299     20259     26302     20259
     26305     20259     26308     20259     26311     20259     26314     20259
     26317     20259     26320     20259     26323     20259     26326     20259
     26329     20259     26332     20259     26335     20259     26338     20259
     26341     20259     26344     20259     26347     20259     26350     20259
     26353     20259     26356     20259     26359     20259     26362     20259
     26365     20259     26368     20259     26371     20259     26374     20259
     26377     20259     26380     20259     26383     20259     26386     20259
     26389     20259     26392     20259     26395     20259     26398     20259
     26401     20259     26404     20259     26407     20259     26410     20259
     26413     20259     26416     20259     26419     20259     26422     20259
     26425     20259     26428     20259     26431     20259     26434     20259
     26437     20259     26440     20259     26443     20259     26446     20259
     26449     20259     26452     20259     26455     20259     26458     20259
     26461     20259     26464     20259     26467     20259     26470     20259
     26473     20259     26476     20259     26479     20259     26482     20259
     26485     20259     26488     20259     26491     20259     26494     20259
     26497     20259     26500     20259     26503     20259     26506     20259
     26509     20259     26512     20259     26515     20259     26518     20259
     26521     20259     26524     20259     26527     20259     26530     20259
     26533     20259     26536     20259     26539     20259     26542     20259
     26545     20259     26548     20259     26551     20259     26554     20259
     26557     20259     26560     20259     26563     20259     26566     20259
     26569     20259     26572     20259     26575     20259     26578     20259
     26581     20259     26584     20259     26587     20259     26590     20259
     26593     20259     26596     20259     26599     20259     26602     20259
     26605     20259     26608     20259     26611     20259     26614     20259
     26617     20259     26620     20259     26623     20259     26626     20259
     26629     20259     26632     20259     26635     20259     26638     20259
     26641     20259     26644     20259     26647     20259     26650     20259
     26653     20259     26656     20259     26659     20259     26662     20259
     26665     20259     26668     20259     26671     20259     26674     20259
     26677     20259     26680     20259     26683     20259     26686     20259
     26689     20259     26692     20259     26695     20259     26698     20259
     26701     20259     26704     20259     26707     20259     26710     20259
     26713     20259     26716     20259     26719     20259     26722     20259
     26725     20259     26728     20259     26731     20259     26734     20259
     26737     20259     26740     20259     26743     20259     26746     20259
     26749     20259     26752     20259     26755     20259     26758     20259
     26761     20259     26764     20259     26767     20259     26770     20259
     26773     20259     26776     20259     26779     20259     26782     20259
     26785     20259     26788     20259     26791     20259     26794     20259
     26797     20259     26800     20259     26803     20259     26806     20259
     26809     20259     26812     26811     26815     26811     26818     26811
     26821     26811     26824     26811     26827     26811     26830     26811
     26833     26811     26836     26811     26839     26811     26842     26811
     26845     26811     26848     26811     26851     26811     26854     26811
     26857     26811     26860     26811     26863     26811     26866     26811
     26869     26811     26872     26811     26875     26811     26878     26811
     26881     26811     26884     26811     26887     26811     26890     26811
     26893     26811     26896     26811     26899     26811     26902     26811
     26905     26811     26908     26811     26911     26811     26914     26811
     26917     26811     26920     26811     26923     26811     26926     26811
     26929     26811     26932     26811     26935     26811     26938     26811
     26941     26811     26944     26811     26947     26811     26950     26811
     26953     26811     26956     26811     26959     26811     26962     26811
     26965     26811     26968     26811     26971     26811     26974     26811
     26977     26811     26980     26811     26983     26811     26986     26811
     26989     26811     26992     26811     26995     26811     26998     26811
     27001     26811     27004     26811     27007     26811     27010     26811
     27013     26811     27016     26811     27019     26811     27022     26811
     27025     26811     27028     26811     27031     26811     27034     26811
     27037     26811     27040     26811     27043     26811     27046     26811
     27049     26811     27052     26811     27055     26811     27058     26811
     27061     26811     27064     26811     27067     26811     27070     26811
     27073     26811     27076     26811     27079     26811     27082     26811
     27085     26811     27088     26811     27091     26811     27094     26811
     27097     26811     27100     26811     27103     26811     27106     26811
     27109     26811     27112     26811     27115     26811     27118     26811
     27121     26811     27124     26811     27127     26811     27130     26811
     27133     26811     27136     26811     27139     26811     27142     26811
     27145     26811     27148     26811     27151     26811     27154     26811
     27157     26811     27160     26811     27163     26811     27166     26811
     27169     26811     27172     26811     27175     26811     27178     26811
     27181     26811     27184     26811     27187     26811     27190     26811
     27193     26811     27196     26811     27199     26811     27202     26811
     27205     26811     27208     26811     27211     26811     27214     26811
     27217     26811     27220     26811     27223     26811     27226     26811
     27229     26811     27232     26811     27235     26811     27238     26811
     27241     26811     27244     26811     27247     26811     27250     26811
     27253     26811     27256     26811     27259     26811     27262     26811
     27265     26811     27268     26811     27271     26811     27274     26811
     27277     26811     27280     26811     27283     26811     27286     26811
     27289     26811     27292     26811     27295     26811     27298     26811
     27301     26811     27304     26811     27307     26811     27310     26811
     27313     26811     27316     26811     27319     26811     27322     26811
     27325     26811     27328     26811     27331     26811     27334     26811
     27337     26811     27340     26811     27343     26811     27346     26811
     27349     26811     27352     26811     27355     26811     27358     26811
     27361     26811     27364     26811     27367     26811     27370     26811
     27373     26811     27376     26811     27379     26811     27382     26811
     27385     26811     27388     26811     27391     26811     27394     26811
     27397     26811     27400     26811     27403     26811     27406     26811
     27409     26811     27412     26811     27415     26811     27418     26811
     27421     26811     27424     26811     27427     26811     27430     26811
     27433     26811     27436     26811     27439     26811     27442     26811
     27445     26811     27448     26811     27451     26811     27454     26811
     27457     26811     27460     26811     27463     26811     27466     26811
     27469     26811     27472     26811     27475     26811     27478     26811
     27481     26811     27484     26811     27487     26811     27490     26811
     27493     26811     27496     26811     27499     26811     27502     26811
     27505     26811     27508     26811     27511     26811     27514     26811
     27517     26811     27520     26811     27523     26811     27526     26811
     27529     26811     27532     26811     27535     26811     27538     26811
     27541     26811     27544     26811     27547     26811     27550     26811
     27553     26811     27556     26811     27559     26811     27562     26811
     27565     26811     27568     26811     27571     26811     27574     26811
     27577     26811     27580     26811     27583     26811     27586     26811
     27589     26811     27592     26811     27595     26811     27598     26811
     27601     26811     27604     26811     27607     26811     27610     26811
     27613     26811     27616     26811     27619     26811     27622     26811
     27625     26811     27628     26811     27631     26811     27634     26811
     27637     26811     27640     26811     27643     26811     27646     26811
     27649     26811     27652     26811     27655     26811     27658     26811
     27661     26811     27664     26811     27667     26811     27670     26811
     27673     26811     27676     26811     27679     26811     27682     26811
     27685     26811     27688     26811     27691     26811     27694     26811
     27697     26811     27700     26811     27703     26811     27706     26811
     27709     26811     27712     26811     27715     26811     27718     26811
     27721     26811     27724     26811     27727     26811     27730     26811
     27733     26811     27736     26811     27739     26811     27742     26811
     27745     26811     27748     26811     27751     26811     27754     26811
     27757     26811     27760     26811     27763     26811     27766     26811
     27769     26811     27772     26811     27775     26811     27778     26811
     27781     26811     27784     26811     27787     26811     27790     26811
     27793     26811     27796     26811     27799     26811     27802     26811
     27805     26811     27808     26811     27811     26811     27814     26811
     27817     26811     27820     26811     27823     26811     27826     26811
     27829     26811     27832     26811     27835     26811     27838     26811
     27841     26811     27844     26811     27847     26811

         0 !NNB

         0         0         0         0         0         0         0         0
         0         0         0         0         0         0         0         0
         0         0         0         0         0         0         0         0
         0         0         0         0         0         0         0         0
         0         0         0         0         0         0         0         0
         0         0         0         0         0         0         0         0
         0         0         0         0         0         0         0         0
         0         0         0         0         0         0         0         0
         0         0         0         0         0         0         0         0
         0         0         0         0         0         0         0         0
         0         0         0         0         0         0         0         0
         0         0         0         0         0         0         0         0
         0         0         0         0         0         0         0         0
         0         0         0         0         0         0         0         0
         0         0         0         0         0         0         0         0
         0         0         0         0         0         0         0         0
         0         0         0         0         0         0         0         0
         0         0         0         0         0         0         0         0
         0         0         0         0         0         0         0         0
         0         0         0         0         0         0         0         0
         0         0         0         0         0         0         0         0
         0         0         0         0         0         0         0         0
         0         0         0         0         0         0         0         0
         0         0         0         0         0         0         0         0
         0         0         0         0         0         0         0         0
         0         0         0         0         0         0         0         0
         0         0         0         0         0         0         0         0
         0         0         0         0         0         0         0         0
         0         0         0         0         0         0         0         0
         0         0         0         0         0         0         0         0
         0         0         0         0         0         0         0         0
         0         0         0         0         0         0         0         0
         0         0         0         0         0         0         0         0
         0         0         0         0         0         0         0         0
         0         0         0         0         0         0         0         0
         0         0         0         0         0         0         0         0
         0         0         0         0         0         0         0         0
         0         0         0         0         0         0         0         0
         0         0         0         0         0         0         0         0
         0         0         0         0         0         0         0         0
         0         0         0         0         0         0         0         0
         0         0         0         0         0         0         0         0
         0         0         0         0         0         0         0         0
         0         0         0         0         0         0         0         0
         0         0         0         0         0         0         0         0
         0         0         0         0         0         0         0         0
         0         0         0         0         0         0         0         0
         0         0         0         0         0         0         0         0
         0         0         0         0         0         0         0         0
         0         0         0         0         0         0         0         0
         0         0         0         0         0         0         0         0
         0         0         0         0         0         0         0         0
         0         0         0         0         0         0         0         0
         0         0         0         0         0         0         0         0
         0         0         0         0         0         0         0         0
         0         0         0         0         0         0         0         0
         0         0         0         0         0         0         0         0
         0         0         0         0         0         0         0         0
         0         0         0         0         0         0         0         0
         0         0         0         0         0         0         0         0
         0         0         0         0         0         0         0         0
         0         0         0         0         0         0         0         0
         0         0         0         0         0         0         0         0
         0         0         0         0         0         0         0         0
         0         0         0         0         0         0         0         0
         0         0         0         0         0         0         0         0
         0         0         0         0         0         0         0         0
         0         0         0         0         0         0         0         0
         0         0         0         0         0         0         0         0
         0         0         0         0         0         0         0         0
         0         0         0         0         0         0         0         0
         0         0         0         0         0         0         0         0
         0         0         0         0         0         0         0         0
         0         0         0         0         0         0         0         0
         0         0         0         0         0         0         0         0
         0         0         0         0         0         0         0         0
         0         0         0         0         0         0         0         0
         0         0         0         0         0         0         0         0
         0         0         0         0         0         0         0         0
         0         0         0         0         0         0         0         0
         0         0         0         0         0         0         0         0
         0         0         0         0         0         0         0         0
         0         0         0         0         0         0         0         0
         0         0         0         0         0         0         0         0
         0         0         0         0         0         0         0         0
         0         0         0         0         0         0         0         0
         0         0         0         0         0         0         0         0
         0         0         0         0         0         0         0         0
         0         0         0         0         0         0         0         0
         0         0         0         0         0         0         0         0
         0         0         0         0         0         0         0         0
         0         0         0         0         0         0         0         0
         0         0         0         0         0         0         0         0
         0         0         0         0         0         0         0         0
         0         0         0         0         0         0         0         0
         0         0         0         0         0         0         0         0
         0         0         0         0         0         0         0         0
         0         0         0         0         0         0         0         0
         0         0         0         0         0         0         0         0
         0         0         0         0         0         0         0         0
         0         0         0         0         0         0         0         0
         0         0         0         0         0         0         0         0
         0         0         0         0         0         0         0         0
         0         0         0         0         0         0         0         0
         0         0         0         0         0         0         0         0
         0         0         0         0         0         0         0         0
         0         0         0         0         0         0         0         0
         0         0         0         0         0         0         0         0
         0         0         0         0         0         0         0         0
         0         0         0         0         0         0         0         0
         0         0         0         0         0         0         0         0
         0         0         0         0         0         0         0         0
         0         0         0         0         0         0         0         0
         0         0         0         0         0         0         0         0
         0         0         0         0         0         0         0         0
         0         0         0         0         0         0         0         0
         0         0         0         0         0         0         0         0
         0         0         0         0         0         0         0         0
         0         0         0         0         0         0         0         0
         0         0         0         0         0         0         0         0
         0         0         0         0         0         0         0         0
         0         0         0         0         0         0         0         0
         0         0         0         0         0         0         0         0
         0         0         0         0         0         0         0         0
         0         0         0         0         0         0         0         0
         0         0         0         0         0         0         0         0
         0         0         0         0         0         0         0         0
         0         0         0         0         0         0         0         0
         0         0         0         0         0         0         0         0
         0         0         0         0         0         0         0         0
         0         0         0         0         0         0         0         0
         0         0         0         0         0         0         0         0
         0         0         0         0         0         0         0         0
         0         0         0         0         0         0         0         0
         0         0         0         0         0         0         0         0
         0         0         0         0         0         0         0         0
         0         0         0         0         0         0         0         0
         0         0         0         0         0         0         0         0
         0         0         0         0         0         0         0         0
         0         0         0         0         0         0         0         0
         0         0         0         0         0         0         0         0
         0         0         0         0         0         0         0         0
         0         0         0         0         0         0         0         0
         0         0         0         0         0         0         0         0
         0         0         0         0         0         0         0         0
         0         0         0         0         0         0         0         0
         0         0         0         0         0         0         0         0
         0         0         0         0         0         0         0         0
         0         0         0         0         0         0         0         0
         0         0         0         0         0         0         0         0
         0         0         0         0         0         0         0         0
         0         0         0         0         0         0         0         0
         0         0         0         0         0         0         0         0
         0         0         0         0         0         0         0         0
         0         0         0         0         0         0         0         0
         0         0         0         0         0         0         0         0
         0         0         0         0         0         0         0         0
         0         0         0         0         0         0         0         0
         0         0         0         0         0         0         0         0
         0         0         0         0         0         0         0         0
         0         0         0         0         0         0         0         0
         0         0         0         0         0         0         0         0
         0         0         0         0         0         0         0         0
         0         0         0         0         0         0         0         0
         0         0         0         0         0         0         0         0
         0         0         0         0         0         0         0         0
         0         0         0         0         0         0         0         0
         0         0         0         0         0         0         0         0
         0         0         0         0         0         0         0         0
         0         0         0         0         0         0         0         0
         0         0         0         0         0         0         0         0
         0         0         0         0         0         0         0         0
         0         0         0         0         0         0         0         0
         0         0         0         0         0         0         0         0
         0         0         0         0         0         0         0         0
         0         0         0         0         0         0         0         0
         0         0         0         0         0         0         0         0
         0         0         0         0         0         0         0         0
         0         0         0         0         0         0         0         0
         0         0         0         0         0         0         0         0
         0         0         0         0         0         0         0         0
         0         0         0         0         0         0         0         0
         0         0         0         0         0         0         0         0
         0         0         0         0         0         0         0         0
         0         0         0         0         0         0         0         0
         0         0         0         0         0         0         0         0
         0         0         0         0         0         0         0         0
         0         0         0         0         0         0         0         0
         0         0         0         0         0         0         0         0
         0         0         0         0         0         0         0         0
         0         0         0         0         0         0         0         0
         0         0         0         0         0         0         0         0
         0         0         0         0         0         0         0         0
         0         0         0         0         0         0         0         0
         0         0         0         0         0         0         0         0
         0         0         0         0         0         0         0         0
         0         0         0         0         0         0         0         0
         0         0         0         0         0         0         0         0
         0         0         0         0         0         0         0         0
         0         0         0         0         0         0         0         0
         0         0         0         0         0         0         0         0
         0         0         0         0         0         0         0         0
         0         0         0         0         0         0         0         0
         0         0         0         0         0         0         0         0
         0         0         0         0         0         0         0         0
         0         0         0         0         0         0         0         0
         0         0         0         0         0         0         0         0
         0         0         0         0         0         0         0         0
         0         0         0         0         0         0         0         0
         0         0         0         0         0         0         0         0
         0         0         0         0         0         0         0         0
         0         0         0         0         0         0         0         0
         0         0         0         0         0         0         0         0
         0         0         0         0         0         0         0         0
         0         0         0         0         0         0         0         0
         0         0         0         0         0         0         0         0
         0         0         0         0         0         0         0         0
         0         0         0         0         0         0         0         0
         0         0         0         0         0         0         0         0
         0         0         0         0         0         0         0         0
         0         0         0         0         0         0         0         0
         0         0         0         0         0         0         0         0
         0         0         0         0         0         0         0         0
         0         0         0         0         0         0         0         0
         0         0         0         0         0         0         0         0
         0         0         0         0         0         0         0         0
         0         0         0         0         0         0         0         0
         0         0         0         0         0         0         0         0
         0         0         0         0         0         0         0         0
         0         0         0         0         0         0         0         0
         0         0         0         0         0         0         0         0
         0         0         0         0         0         0         0         0
         0         0         0         0         0         0         0         0
         0         0         0         0         0         0         0         0
         0         0         0         0         0         0         0         0
         0         0         0         0         0         0         0         0
         0         0         0         0         0         0         0         0
         0         0         0         0         0         0         0         0
         0         0         0         0         0         0         0         0
         0         0         0         0         0         0         0         0
         0         0         0         0         0         0         0         0
         0         0         0         0         0         0         0         0
         0         0         0         0         0         0         0         0
         0         0         0         0         0         0         0         0
         0         0         0         0         0         0         0         0
         0         0         0         0         0         0         0         0
         0         0         0         0         0         0         0         0
         0         0         0         0         0         0         0         0
         0         0         0         0         0         0         0         0
         0         0         0         0         0         0         0         0
         0         0         0         0         0         0         0         0
         0         0         0         0         0         0         0         0
         0         0         0         0         0         0         0         0
         0         0         0         0         0         0         0         0
         0         0         0         0         0         0         0         0
         0         0         0         0         0         0         0         0
         0         0         0         0         0         0         0         0
         0         0         0         0         0         0         0         0
         0         0         0         0         0         0         0         0
         0         0         0         0         0         0         0         0
         0         0         0         0         0         0         0         0
         0         0         0         0         0         0         0         0
         0         0         0         0         0         0         0         0
         0         0         0         0         0         0         0         0
         0         0         0         0         0         0         0         0
         0         0         0         0         0         0         0         0
         0         0         0         0         0         0         0         0
         0         0         0         0         0         0         0         0
         0         0         0         0         0         0         0         0
         0         0         0         0         0         0         0         0
         0         0         0         0         0         0         0         0
         0         0         0         0         0         0         0         0
         0         0         0         0         0         0         0         0
         0         0         0         0         0         0         0         0
         0         0         0         0         0         0         0         0
         0         0         0         0         0         0         0         0
         0         0         0         0         0         0         0         0
         0         0         0         0         0         0         0         0
         0         0         0         0         0         0         0         0
         0         0         0         0         0         0         0         0
         0         0         0         0         0         0         0         0
         0         0         0         0         0         0         0         0
         0         0         0         0         0         0         0         0
         0         0         0         0         0         0         0         0
         0         0         0         0         0         0         0         0
         0         0         0         0         0         0         0         0
         0         0         0         0         0         0         0         0
         0         0         0         0         0         0         0         0
         0         0         0         0         0         0         0         0
         0         0         0         0         0         0         0         0
         0         0         0         0         0         0         0         0
         0         0         0         0         0         0         0         0
         0         0         0         0         0         0         0         0
         0         0         0         0         0         0         0         0
         0         0         0         0         0         0         0         0
         0         0         0         0         0         0         0         0
         0         0         0         0         0         0         0         0
         0         0         0         0         0         0         0         0
         0         0         0         0         0         0         0         0
         0         0         0         0         0         0         0         0
         0         0         0         0         0         0         0         0
         0         0         0         0         0         0         0         0
         0         0         0         0         0         0         0         0
         0         0         0         0         0         0         0         0
         0         0         0         0         0         0         0         0
         0         0         0         0         0         0         0         0
         0         0         0         0         0         0         0         0
         0         0         0         0         0         0         0         0
         0         0         0         0         0         0         0         0
         0         0         0         0         0         0         0         0
         0         0         0         0         0         0         0         0
         0         0         0         0         0         0         0         0
         0         0         0         0         0         0         0         0
         0         0         0         0         0         0         0         0
         0         0         0         0         0         0         0         0
         0         0         0         0         0         0         0         0
         0         0         0         0         0         0         0         0
         0         0         0         0         0         0         0         0
         0         0         0         0         0         0         0         0
         0         0         0         0         0         0         0         0
         0         0         0         0         0         0         0         0
         0         0         0         0         0         0         0         0
         0         0         0         0         0         0         0         0
         0         0         0         0         0         0         0         0
         0         0         0         0         0         0         0         0
         0         0         0         0         0         0         0         0
         0         0         0         0         0         0         0         0
         0         0         0         0         0         0         0         0
         0         0         0         0         0         0         0         0
         0         0         0         0         0         0         0         0
         0         0         0         0         0         0         0         0
         0         0         0         0         0         0         0         0
         0         0         0         0         0         0         0         0
         0         0         0         0         0         0         0         0
         0         0         0         0         0         0         0         0
         0         0         0         0         0         0         0         0
         0         0         0         0         0         0         0         0
         0         0         0         0         0         0         0         0
         0         0         0         0         0         0         0         0
         0         0         0         0         0         0         0         0
         0         0         0         0         0         0         0         0
         0         0         0         0         0         0         0         0
         0         0         0         0         0         0         0         0
         0         0         0         0         0         0         0         0
         0         0         0         0         0         0         0         0
         0         0         0         0         0         0         0         0
         0         0         0         0         0         0         0         0
         0         0         0         0         0         0         0         0
         0         0         0         0         0         0         0         0
         0         0         0         0         0         0         0         0
         0         0         0         0         0         0         0         0
         0         0         0         0         0         0         0         0
         0         0         0         0         0         0         0         0
         0         0         0         0         0         0         0         0
         0         0         0         0         0         0         0         0
         0         0         0         0         0         0         0         0
         0         0         0         0         0         0         0         0
         0         0         0         0         0         0         0         0
         0         0         0         0         0         0         0         0
         0         0         0         0         0         0         0         0
         0         0         0         0         0         0         0         0
         0         0         0         0         0         0         0         0
         0         0         0         0         0         0         0         0
         0         0         0         0         0         0         0         0
         0         0         0         0         0         0         0         0
         0         0         0         0         0         0         0         0
         0         0         0         0         0         0         0         0
         0         0         0         0         0         0         0         0
         0         0         0         0         0         0         0         0
         0         0         0         0         0         0         0         0
         0         0         0         0         0         0         0         0
         0         0         0         0         0         0         0         0
         0         0         0         0         0         0         0         0
         0         0         0         0         0         0         0         0
         0         0         0         0         0         0         0         0
         0         0         0         0         0         0         0         0
         0         0         0         0         0         0         0         0
         0         0         0         0         0         0         0         0
         0         0         0         0         0         0         0         0
         0         0         0         0         0         0         0         0
         0         0         0         0         0         0         0         0
         0         0         0         0         0         0         0         0
         0         0         0         0         0         0         0         0
         0         0         0         0         0         0         0         0
         0         0         0         0         0         0         0         0
         0         0         0         0         0         0         0         0
         0         0         0         0         0         0         0         0
         0         0         0         0         0         0         0         0
         0         0         0         0         0         0         0         0
         0         0         0         0         0         0         0         0
         0         0         0         0         0         0         0         0
         0         0         0         0         0         0         0         0
         0         0         0         0         0         0         0         0
         0         0         0         0         0         0         0         0
         0         0         0         0         0         0         0         0
         0         0         0         0         0         0         0         0
         0         0         0         0         0         0         0         0
         0         0         0         0         0         0         0         0
         0         0         0         0         0         0         0         0
         0         0         0         0         0         0         0         0
         0         0         0         0         0         0         0         0
         0         0         0         0         0         0         0         0
         0         0         0         0         0         0         0         0
         0         0         0         0         0         0         0         0
         0         0         0         0         0         0         0         0
         0         0         0         0         0         0         0         0
         0         0         0         0         0         0         0         0
         0         0         0         0         0         0         0         0
         0         0         0         0         0         0         0         0
         0         0         0         0         0         0         0         0
         0         0         0         0         0         0         0         0
         0         0         0         0         0         0         0         0
         0         0         0         0         0         0         0         0
         0         0         0         0         0         0         0         0
         0         0         0         0         0         0         0         0
         0         0         0         0         0         0         0         0
         0         0         0         0         0         0         0         0
         0         0         0         0         0         0         0         0
         0         0         0         0         0         0         0         0
         0         0         0         0         0         0         0         0
         0         0         0         0         0         0         0         0
         0         0         0         0         0         0         0         0
         0         0         0         0         0         0         0         0
         0         0         0         0         0         0         0         0
         0         0         0         0         0         0         0         0
         0         0         0         0         0         0         0         0
         0         0         0         0         0         0         0         0
         0         0         0         0         0         0         0         0
         0         0         0         0         0         0         0         0
         0         0         0         0         0         0         0         0
         0         0         0         0         0         0         0         0
         0         0         0         0         0         0         0         0
         0         0         0         0         0         0         0         0
         0         0         0         0         0         0         0         0
         0         0         0         0         0         0         0         0
         0         0         0         0         0         0         0         0
         0         0         0         0         0         0         0         0
         0         0         0         0         0         0         0         0
         0         0         0         0         0         0         0         0
         0         0         0         0         0         0         0         0
         0         0         0         0         0         0         0         0
         0         0         0         0         0         0         0         0
         0         0         0         0         0         0         0         0
         0         0         0         0         0         0         0         0
         0         0         0         0         0         0         0         0
         0         0         0         0         0         0         0         0
         0         0         0         0         0         0         0         0
         0         0         0         0         0         0         0         0
         0         0         0         0         0         0         0         0
         0         0         0         0         0         0         0         0
         0         0         0         0         0         0         0         0
         0         0         0         0         0         0         0         0
         0         0         0         0         0         0         0         0
         0         0         0         0         0         0         0         0
         0         0         0         0         0         0         0         0
         0         0         0         0         0         0         0         0
         0         0         0         0         0         0         0         0
         0         0         0         0         0         0         0         0
         0         0         0         0         0         0         0         0
         0         0         0         0         0         0         0         0
         0         0         0         0         0         0         0         0
         0         0         0         0         0         0         0         0
         0         0         0         0         0         0         0         0
         0         0         0         0         0         0         0         0
         0         0         0         0         0         0         0         0
         0         0         0         0         0         0         0         0
         0         0         0         0         0         0         0         0
         0         0         0         0         0         0         0         0
         0         0         0         0         0         0         0         0
         0         0         0         0         0         0         0         0
         0         0         0         0         0         0         0         0
         0         0         0         0         0         0         0         0
         0         0         0         0         0         0         0         0
         0         0         0         0         0         0         0         0
         0         0         0         0         0         0         0         0
         0         0         0         0         0         0         0         0
         0         0         0         0         0         0         0         0
         0         0         0         0         0         0         0         0
         0         0         0         0         0         0         0         0
         0         0         0         0         0         0         0         0
         0         0         0         0         0         0         0         0
         0         0         0         0         0         0         0         0
         0         0         0         0         0         0         0         0
         0         0         0         0         0         0         0         0
         0         0         0         0         0         0         0         0
         0         0         0         0         0         0         0         0
         0         0         0         0         0         0         0         0
         0         0         0         0         0         0         0         0
         0         0         0         0         0         0         0         0
         0         0         0         0         0         0         0         0
         0         0         0         0         0         0         0         0
         0         0         0         0         0         0         0         0
         0         0         0         0         0         0         0         0
         0         0         0         0         0         0         0         0
         0         0         0         0         0         0         0         0
         0         0         0         0         0         0         0         0
         0         0         0         0         0         0         0         0
         0         0         0         0         0         0         0         0
         0         0         0         0         0         0         0         0
         0         0         0         0         0         0         0         0
         0         0         0         0         0         0         0         0
         0         0         0         0         0         0         0         0
         0         0         0         0         0         0         0         0
         0         0         0         0         0         0         0         0
         0         0         0         0         0         0         0         0
         0         0         0         0         0         0         0         0
         0         0         0         0         0         0         0         0
         0         0         0         0         0         0         0         0
         0         0         0         0         0         0         0         0
         0         0         0         0         0         0         0         0
         0         0         0         0         0         0         0         0
         0         0         0         0         0         0         0         0
         0         0         0         0         0         0         0         0
         0         0         0         0         0         0         0         0
         0         0         0         0         0         0         0         0
         0         0         0         0         0         0         0         0
         0         0         0         0         0         0         0         0
         0         0         0         0         0         0         0         0
         0         0         0         0         0         0         0         0
         0         0         0         0         0         0         0         0
         0         0         0         0         0         0         0         0
         0         0         0         0         0         0         0         0
         0         0         0         0         0         0         0         0
         0         0         0         0         0         0         0         0
         0         0         0         0         0         0         0         0
         0         0         0         0         0         0         0         0
         0         0         0         0         0         0         0         0
         0         0         0         0         0         0         0         0
         0         0         0         0         0         0         0         0
         0         0         0         0         0         0         0         0
         0         0         0         0         0         0         0         0
         0         0         0         0         0         0         0         0
         0         0         0         0         0         0         0         0
         0         0         0         0         0         0         0         0
         0         0         0         0         0         0         0         0
         0         0         0         0         0         0         0         0
         0         0         0         0         0         0         0         0
         0         0         0         0         0         0         0         0
         0         0         0         0         0         0         0         0
         0         0         0         0         0         0         0         0
         0         0         0         0         0         0         0         0
         0         0         0         0         0         0         0         0
         0         0         0         0         0         0         0         0
         0         0         0         0         0         0         0         0
         0         0         0         0         0         0         0         0
         0         0         0         0         0         0         0         0
         0         0         0         0         0         0         0         0
         0         0         0         0         0         0         0         0
         0         0         0         0         0         0         0         0
         0         0         0         0         0         0         0         0
         0         0         0         0         0         0         0         0
         0         0         0         0         0         0         0         0
         0         0         0         0         0         0         0         0
         0         0         0         0         0         0         0         0
         0         0         0         0         0         0         0         0
         0         0         0         0         0         0         0         0
         0         0         0         0         0         0         0         0
         0         0         0         0         0         0         0         0
         0         0         0         0         0         0         0         0
         0         0         0         0         0         0         0         0
         0         0         0         0         0         0         0         0
         0         0         0         0         0         0         0         0
         0         0         0         0         0         0         0         0
         0         0         0         0         0         0         0         0
         0         0         0         0         0         0         0         0
         0         0         0         0         0         0         0         0
         0         0         0         0         0         0         0         0
         0         0         0         0         0         0         0         0
         0         0         0         0         0         0         0         0
         0         0         0         0         0         0         0         0
         0         0         0         0         0         0         0         0
         0         0         0         0         0         0         0         0
         0         0         0         0         0         0         0         0
         0         0         0         0         0         0         0         0
         0         0         0         0         0         0         0         0
         0         0         0         0         0         0         0         0
         0         0         0         0         0         0         0         0
         0         0         0         0         0         0         0         0
         0         0         0         0         0         0         0         0
         0         0         0         0         0         0         0         0
         0         0         0         0         0         0         0         0
         0         0         0         0         0         0         0         0
         0         0         0         0         0         0         0         0
         0         0         0         0         0         0         0         0
         0         0         0         0         0         0         0         0
         0         0         0         0         0         0         0         0
         0         0         0         0         0         0         0         0
         0         0         0         0         0         0         0         0
         0         0         0         0         0         0         0         0
         0         0         0         0         0         0         0         0
         0         0         0         0         0         0         0         0
         0         0         0         0         0         0         0         0
         0         0         0         0         0         0         0         0
         0         0         0         0         0         0         0         0
         0         0         0         0         0         0         0         0
         0         0         0         0         0         0         0         0
         0         0         0         0         0         0         0         0
         0         0         0         0         0         0         0         0
         0         0         0         0         0         0         0         0
         0         0         0         0         0         0         0         0
         0         0         0         0         0         0         0         0
         0         0         0         0         0         0         0         0
         0         0         0         0         0         0         0         0
         0         0         0         0         0         0         0         0
         0         0         0         0         0         0         0         0
         0         0         0         0         0         0         0         0
         0         0         0         0         0         0         0         0
         0         0         0         0         0         0         0         0
         0         0         0         0         0         0         0         0
         0         0         0         0         0         0         0         0
         0         0         0         0         0         0         0         0
         0         0         0         0         0         0         0         0
         0         0         0         0         0         0         0         0
         0         0         0         0         0         0         0         0
         0         0         0         0         0         0         0         0
         0         0         0         0         0         0         0         0
         0         0         0         0         0         0         0         0
         0         0         0         0         0         0         0         0
         0         0         0         0         0         0         0         0
         0         0         0         0         0         0         0         0
         0         0         0         0         0         0         0         0
         0         0         0         0         0         0         0         0
         0         0         0         0         0         0         0         0
         0         0         0         0         0         0         0         0
         0         0         0         0         0         0         0         0
         0         0         0         0         0         0         0         0
         0         0         0         0         0         0         0         0
         0         0         0         0         0         0         0         0
         0         0         0         0         0         0         0         0
         0         0         0         0         0         0         0         0
         0         0         0         0         0         0         0         0
         0         0         0         0         0         0         0         0
         0         0         0         0         0         0         0         0
         0         0         0         0         0         0         0         0
         0         0         0         0         0         0         0         0
         0         0         0         0         0         0         0         0
         0         0         0         0         0         0         0         0
         0         0         0         0         0         0         0         0
         0         0         0         0         0         0         0         0
         0         0         0         0         0         0         0         0
         0         0         0         0         0         0         0         0
         0         0         0         0         0         0         0         0
         0         0         0         0         0         0         0         0
         0         0         0         0         0         0         0         0
         0         0         0         0         0         0         0         0
         0         0         0         0         0         0         0         0
         0         0         0         0         0         0         0         0
         0         0         0         0         0         0         0         0
         0         0         0         0         0         0         0         0
         0         0         0         0         0         0         0         0
         0         0         0         0         0         0         0         0
         0         0         0         0         0         0         0         0
         0         0         0         0         0         0         0         0
         0         0         0         0         0         0         0         0
         0         0         0         0         0         0         0         0
         0         0         0         0         0         0         0         0
         0         0         0         0         0         0         0         0
         0         0         0         0         0         0         0         0
         0         0         0         0         0         0         0         0
         0         0         0         0         0         0         0         0
         0         0         0         0         0         0         0         0
         0         0         0         0         0         0         0         0
         0         0         0         0         0         0         0         0
         0         0         0         0         0         0         0         0
         0         0         0         0         0         0         0         0
         0         0         0         0         0         0         0         0
         0         0         0         0         0         0         0         0
         0         0         0         0         0         0         0         0
         0         0         0         0         0         0         0         0
         0         0         0         0         0         0         0         0
         0         0         0         0         0         0         0         0
         0         0         0         0         0         0         0         0
         0         0         0         0         0         0         0         0
         0         0         0         0         0         0         0         0
         0         0         0         0         0         0         0         0
         0         0         0         0         0         0         0         0
         0         0         0         0         0         0         0         0
         0         0         0         0         0         0         0         0
         0         0         0         0         0         0         0         0
         0         0         0         0         0         0         0         0
         0         0         0         0         0         0         0         0
         0         0         0         0         0         0         0         0
         0         0         0         0         0         0         0         0
         0         0         0         0         0         0         0         0
         0         0         0         0         0         0         0         0
         0         0         0         0         0         0         0         0
         0         0         0         0         0         0         0         0
         0         0         0         0         0         0         0         0
         0         0         0         0         0         0         0         0
         0         0         0         0         0         0         0         0
         0         0         0         0         0         0         0         0
         0         0         0         0         0         0         0         0
         0         0         0         0         0         0         0         0
         0         0         0         0         0         0         0         0
         0         0         0         0         0         0         0         0
         0         0         0         0         0         0         0         0
         0         0         0         0         0         0         0         0
         0         0         0         0         0         0         0         0
         0         0         0         0         0         0         0         0
         0         0         0         0         0         0         0         0
         0         0         0         0         0         0         0         0
         0         0         0         0         0         0         0         0
         0         0         0         0         0         0         0         0
         0         0         0         0         0         0         0         0
         0         0         0         0         0         0         0         0
         0         0         0         0         0         0         0         0
         0         0         0         0         0         0         0         0
         0         0         0         0         0         0         0         0
         0         0         0         0         0         0         0         0
         0         0         0         0         0         0         0         0
         0         0         0         0         0         0         0         0
         0         0         0         0         0         0         0         0
         0         0         0         0         0         0         0         0
         0         0         0         0         0         0         0         0
         0         0         0         0         0         0         0         0
         0         0         0         0         0         0         0         0
         0         0         0         0         0         0         0         0
         0         0         0         0         0         0         0         0
         0         0         0         0         0         0         0         0
         0         0         0         0         0         0         0         0
         0         0         0         0         0         0         0         0
         0         0         0         0         0         0         0         0
         0         0         0         0         0         0         0         0
         0         0         0         0         0         0         0         0
         0         0         0         0         0         0         0         0
         0         0         0         0         0         0         0         0
         0         0         0         0         0         0         0         0
         0         0         0         0         0         0         0         0
         0         0         0         0         0         0         0         0
         0         0         0         0         0         0         0         0
         0         0         0         0         0         0         0         0
         0         0         0         0         0         0         0         0
         0         0         0         0         0         0         0         0
         0         0         0         0         0         0         0         0
         0         0         0         0         0         0         0         0
         0         0         0         0         0         0         0         0
         0         0         0         0         0         0         0         0
         0         0         0         0         0         0         0         0
         0         0         0         0         0         0         0         0
         0         0         0         0         0         0         0         0
         0         0         0         0         0         0         0         0
         0         0         0         0         0         0         0         0
         0         0         0         0         0         0         0         0
         0         0         0         0         0         0         0         0
         0         0         0         0         0         0         0         0
         0         0         0         0         0         0         0         0
         0         0         0         0         0         0         0         0
         0         0         0         0         0         0         0         0
         0         0         0         0         0         0         0         0
         0         0         0         0         0         0         0         0
         0         0         0         0         0         0         0         0
         0         0         0         0         0         0         0         0
         0         0         0         0         0         0         0         0
         0         0         0         0         0         0         0         0
         0         0         0         0         0         0         0         0
         0         0         0         0         0         0         0         0
         0         0         0         0         0         0         0         0
         0         0         0         0         0         0         0         0
         0         0         0         0         0         0         0         0
         0         0         0         0         0         0         0         0
         0         0         0         0         0         0         0         0
         0         0         0         0         0         0         0         0
         0         0         0         0         0         0         0         0
         0         0         0         0         0         0         0         0
         0         0         0         0         0         0         0         0
         0         0         0         0         0         0         0         0
         0         0         0         0         0         0         0         0
         0         0         0         0         0         0         0         0
         0         0         0         0         0         0         0         0
         0         0         0         0         0         0         0         0
         0         0         0         0         0         0         0         0
         0         0         0         0         0         0         0         0
         0         0         0         0         0         0         0         0
         0         0         0         0         0         0         0         0
         0         0         0         0         0         0         0         0
         0         0         0         0         0         0         0         0
         0         0         0         0         0         0         0         0
         0         0         0         0         0         0         0         0
         0         0         0         0         0         0         0         0
         0         0         0         0         0         0         0         0
         0         0         0         0         0         0         0         0
         0         0         0         0         0         0         0         0
         0         0         0         0         0         0         0         0
         0         0         0         0         0         0         0         0
         0         0         0         0         0         0         0         0
         0         0         0         0         0         0         0         0
         0         0         0         0         0         0         0         0
         0         0         0         0         0         0         0         0
         0         0         0         0         0         0         0         0
         0         0         0         0         0         0         0         0
         0         0         0         0         0         0         0         0
         0         0         0         0         0         0         0         0
         0         0         0         0         0         0         0         0
         0         0         0         0         0         0         0         0
         0         0         0         0         0         0         0         0
         0         0         0         0         0         0         0         0
         0         0         0         0         0         0         0         0
         0         0         0         0         0         0         0         0
         0         0         0         0         0         0         0         0
         0         0         0         0         0         0         0         0
         0         0         0         0         0         0         0         0
         0         0         0         0         0         0         0         0
         0         0         0         0         0         0         0         0
         0         0         0         0         0         0         0         0
         0         0         0         0         0         0         0         0
         0         0         0         0         0         0         0         0
         0         0         0         0         0         0         0         0
         0         0         0         0         0         0         0         0
         0         0         0         0         0         0         0         0
         0         0         0         0         0         0         0         0
         0         0         0         0         0         0         0         0
         0         0         0         0         0         0         0         0
         0         0         0         0         0         0         0         0
         0         0         0         0         0         0         0         0
         0         0         0         0         0         0         0         0
         0         0         0         0         0         0         0         0
         0         0         0         0         0         0         0         0
         0         0         0         0         0         0         0         0
         0         0         0         0         0         0         0         0
         0         0         0         0         0         0         0         0
         0         0         0         0         0         0         0         0
         0         0         0         0         0         0         0         0
         0         0         0         0         0         0         0         0
         0         0         0         0         0         0         0         0
         0         0         0         0         0         0         0         0
         0         0         0         0         0         0         0         0
         0         0         0         0         0         0         0         0
         0         0         0         0         0         0         0         0
         0         0         0         0         0         0         0         0
         0         0         0         0         0         0         0         0
         0         0         0         0         0         0         0         0
         0         0         0         0         0         0         0         0
         0         0         0         0         0         0         0         0
         0         0         0         0         0         0         0         0
         0         0         0         0         0         0         0         0
         0         0         0         0         0         0         0         0
         0         0         0         0         0         0         0         0
         0         0         0         0         0         0         0         0
         0         0         0         0         0         0         0         0
         0         0         0         0         0         0         0         0
         0         0         0         0         0         0         0         0
         0         0         0         0         0         0         0         0
         0         0         0         0         0         0         0         0
         0         0         0         0         0         0         0         0
         0         0         0         0         0         0         0         0
         0         0         0         0         0         0         0         0
         0         0         0         0         0         0         0         0
         0         0         0         0         0         0         0         0
         0         0         0         0         0         0         0         0
         0         0         0         0         0         0         0         0
         0         0         0         0         0         0         0         0
         0         0         0         0         0         0         0         0
         0         0         0         0         0         0         0         0
         0         0         0         0         0         0         0         0
         0         0         0         0         0         0         0         0
         0         0         0         0         0         0         0         0
         0         0         0         0         0         0         0         0
         0         0         0         0         0         0         0         0
         0         0         0         0         0         0         0         0
         0         0         0         0         0         0         0         0
         0         0         0         0         0         0         0         0
         0         0         0         0         0         0         0         0
         0         0         0         0         0         0         0         0
         0         0         0         0         0         0         0         0
         0         0         0         0         0         0         0         0
         0         0         0         0         0         0         0         0
         0         0         0         0         0         0         0         0
         0         0         0         0         0         0         0         0
         0         0         0         0         0         0         0         0
         0         0         0         0         0         0         0         0
         0         0         0         0         0         0         0         0
         0         0         0         0         0         0         0         0
         0         0         0         0         0         0         0         0
         0         0         0         0         0         0         0         0
         0         0         0         0         0         0         0         0
         0         0         0         0         0         0         0         0
         0         0         0         0         0         0         0         0
         0         0         0         0         0         0         0         0
         0         0         0         0         0         0         0         0
         0         0         0         0         0         0         0         0
         0         0         0         0         0         0         0         0
         0         0         0         0         0         0         0         0
         0         0         0         0         0         0         0         0
         0         0         0         0         0         0         0         0
         0         0         0         0         0         0         0         0
         0         0         0         0         0         0         0         0
         0         0         0         0         0         0         0         0
         0         0         0         0         0         0         0         0
         0         0         0         0         0         0         0         0
         0         0         0         0         0         0         0         0
         0         0         0         0         0         0         0         0
         0         0         0         0         0         0         0         0
         0         0         0         0         0         0         0         0
         0         0         0         0         0         0         0         0
         0         0         0         0         0         0         0         0
         0         0         0         0         0         0         0         0
         0         0         0         0         0         0         0         0
         0         0         0         0         0         0         0         0
         0         0         0         0         0         0         0         0
         0         0         0         0         0         0         0         0
         0         0         0         0         0         0         0         0
         0         0         0         0         0         0         0         0
         0         0         0         0         0         0         0         0
         0         0         0         0         0         0         0         0
         0         0         0         0         0         0         0         0
         0         0         0         0         0         0         0         0
         0         0         0         0         0         0         0         0
         0         0         0         0         0         0         0         0
         0         0         0         0         0         0         0         0
         0         0         0         0         0         0         0         0
         0         0         0         0         0         0         0         0
         0         0         0         0         0         0         0         0
         0         0         0         0         0         0         0         0
         0         0         0         0         0         0         0         0
         0         0         0         0         0         0         0         0
         0         0         0         0         0         0         0         0
         0         0         0         0         0         0         0         0
         0         0         0         0         0         0         0         0
         0         0         0         0         0         0         0         0
         0         0         0         0         0         0         0         0
         0         0         0         0         0         0         0         0
         0         0         0         0         0         0         0         0
         0         0         0         0         0         0         0         0
         0         0         0         0         0         0         0         0
         0         0         0         0         0         0         0         0
         0         0         0         0         0         0         0         0
         0         0         0         0         0         0         0         0
         0         0         0         0         0         0         0         0
         0         0         0         0         0         0         0         0
         0         0         0         0         0         0         0         0
         0         0         0         0         0         0         0         0
         0         0         0         0         0         0         0         0
         0         0         0         0         0         0         0         0
         0         0         0         0         0         0         0         0
         0         0         0         0         0         0         0         0
         0         0         0         0         0         0         0         0
         0         0         0         0         0         0         0         0
         0         0         0         0         0         0         0         0
         0         0         0         0         0         0         0         0
         0         0         0         0         0         0         0         0
         0         0         0         0         0         0         0         0
         0         0         0         0         0         0         0         0
         0         0         0         0         0         0         0         0
         0         0         0         0         0         0         0         0
         0         0         0         0         0         0         0         0
         0         0         0         0         0         0         0         0
         0         0         0         0         0         0         0         0
         0         0         0         0         0         0         0         0
         0         0         0         0         0         0         0         0
         0         0         0         0         0         0         0         0
         0         0         0         0         0         0         0         0
         0         0         0         0         0         0         0         0
         0         0         0         0         0         0         0         0
         0         0         0         0         0         0         0         0
         0         0         0         0         0         0         0         0
         0         0         0         0         0         0         0         0
         0         0         0         0         0         0         0         0
         0         0         0         0         0         0         0         0
         0         0         0         0         0         0         0         0
         0         0         0         0         0         0         0         0
         0         0         0         0         0         0         0         0
         0         0         0         0         0         0         0         0
         0         0         0         0         0         0         0         0
         0         0         0         0         0         0         0         0
         0         0         0         0         0         0         0         0
         0         0         0         0         0         0         0         0
         0         0         0         0         0         0         0         0
         0         0         0         0         0         0         0         0
         0         0         0         0         0         0         0         0
         0         0         0         0         0         0         0         0
         0         0         0         0         0         0         0         0
         0         0         0         0         0         0         0         0
         0         0         0         0         0         0         0         0
         0         0         0         0         0         0         0         0
         0         0         0         0         0         0         0         0
         0         0         0         0         0         0         0         0
         0         0         0         0         0         0         0         0
         0         0         0         0         0         0         0         0
         0         0         0         0         0         0         0         0
         0         0         0         0         0         0         0         0
         0         0         0         0         0         0         0         0
         0         0         0         0         0         0         0         0
         0         0         0         0         0         0         0         0
         0         0         0         0         0         0         0         0
         0         0         0         0         0         0         0         0
         0         0         0         0         0         0         0         0
         0         0         0         0         0         0         0         0
         0         0         0         0         0         0         0         0
         0         0         0         0         0         0         0         0
         0         0         0         0         0         0         0         0
         0         0         0         0         0         0         0         0
         0         0         0         0         0         0         0         0
         0         0         0         0         0         0         0         0
         0         0         0         0         0         0         0         0
         0         0         0         0         0         0         0         0
         0         0         0         0         0         0         0         0
         0         0         0         0         0         0         0         0
         0         0         0         0         0         0         0         0
         0         0         0         0         0         0         0         0
         0         0         0         0         0         0         0         0
         0         0         0         0         0         0         0         0
         0         0         0         0         0         0         0         0
         0         0         0         0         0         0         0         0
         0         0         0         0         0         0         0         0
         0         0         0         0         0         0         0         0
         0         0         0         0         0         0         0         0
         0         0         0         0         0         0         0         0
         0         0         0         0         0         0         0         0
         0         0         0         0         0         0         0         0
         0         0         0         0         0         0         0         0
         0         0         0         0         0         0         0         0
         0         0         0         0         0         0         0         0
         0         0         0         0         0         0         0         0
         0         0         0         0         0         0         0         0
         0         0         0         0         0         0         0         0
         0         0         0         0         0         0         0         0
         0         0         0         0         0         0         0         0
         0         0         0         0         0         0         0         0
         0         0         0         0         0         0         0         0
         0         0         0         0         0         0         0         0
         0         0         0         0         0         0         0         0
         0         0         0         0         0         0         0         0
         0         0         0         0         0         0         0         0
         0         0         0         0         0         0         0         0
         0         0         0         0         0         0         0         0
         0         0         0         0         0         0         0         0
         0         0         0         0         0         0         0         0
         0         0         0         0         0         0         0         0
         0         0         0         0         0         0         0         0
         0         0         0         0         0         0         0         0
         0         0         0         0         0         0         0         0
         0         0         0         0         0         0         0         0
         0         0         0         0         0         0         0         0
         0         0         0         0         0         0         0         0
         0         0         0         0         0         0         0         0
         0         0         0         0         0         0         0         0
         0         0         0         0         0         0         0         0
         0         0         0         0         0         0         0         0
         0         0         0         0         0         0         0         0
         0         0         0         0         0         0         0         0
         0         0         0         0         0         0         0         0
         0         0         0         0         0         0         0         0
         0         0         0         0         0         0         0         0
         0         0         0         0         0         0         0         0
         0         0         0         0         0         0         0         0
         0         0         0         0         0         0         0         0
         0         0         0         0         0         0         0         0
         0         0         0         0         0         0         0         0
         0         0         0         0         0         0         0         0
         0         0         0         0         0         0         0         0
         0         0         0         0         0         0         0         0
         0         0         0         0         0         0         0         0
         0         0         0         0         0         0         0         0
         0         0         0         0         0         0         0         0
         0         0         0         0         0         0         0         0
         0         0         0         0         0         0         0         0
         0         0         0         0         0         0         0         0
         0         0         0         0         0         0         0         0
         0         0         0         0         0         0         0         0
         0         0         0         0         0         0         0         0
         0         0         0         0         0         0         0         0
         0         0         0         0         0         0         0         0
         0         0         0         0         0         0         0         0
         0         0         0         0         0         0         0         0
         0         0         0         0         0         0         0         0
         0         0         0         0         0         0         0         0
         0         0         0         0         0         0         0         0
         0         0         0         0         0         0         0         0
         0         0         0         0         0         0         0         0
         0         0         0         0         0         0         0         0
         0         0         0         0         0         0         0         0
         0         0         0         0         0         0         0         0
         0         0         0         0         0         0         0         0
         0         0         0         0         0         0         0         0
         0         0         0         0         0         0         0         0
         0         0         0         0         0         0         0         0
         0         0         0         0         0         0         0         0
         0         0         0         0         0         0         0         0
         0         0         0         0         0         0         0         0
         0         0         0         0         0         0         0         0
         0         0         0         0         0         0         0         0
         0         0         0         0         0         0         0         0
         0         0         0         0         0         0         0         0
         0         0         0         0         0         0         0         0
         0         0         0         0         0         0         0         0
         0         0         0         0         0         0         0         0
         0         0         0         0         0         0         0         0
         0         0         0         0         0         0         0         0
         0         0         0         0         0         0         0         0
         0         0         0         0         0         0         0         0
         0         0         0         0         0         0         0         0
         0         0         0         0         0         0         0         0
         0         0         0         0         0         0         0         0
         0         0         0         0         0         0         0         0
         0         0         0         0         0         0         0         0
         0         0         0         0         0         0         0         0
         0         0         0         0         0         0         0         0
         0         0         0         0         0         0         0         0
         0         0         0         0         0         0         0         0
         0         0         0         0         0         0         0         0
         0         0         0         0         0         0         0         0
         0         0         0         0         0         0         0         0
         0         0         0         0         0         0         0         0
         0         0         0         0         0         0         0         0
         0         0         0         0         0         0         0         0
         0         0         0         0         0         0         0         0
         0         0         0         0         0         0         0         0
         0         0         0         0         0         0         0         0
         0         0         0         0         0         0         0         0
         0         0         0         0         0         0         0         0
         0         0         0         0         0         0         0         0
         0         0         0         0         0         0         0         0
         0         0         0         0         0         0         0         0
         0         0         0         0         0         0         0         0
         0         0         0         0         0         0         0         0
         0         0         0         0         0         0         0         0
         0         0         0         0         0         0         0         0
         0         0         0         0         0         0         0         0
         0         0         0         0         0         0         0         0
         0         0         0         0         0         0         0         0
         0         0         0         0         0         0         0         0
         0         0         0         0         0         0         0         0
         0         0         0         0         0         0         0         0
         0         0         0         0         0         0         0         0
         0         0         0         0         0         0         0         0
         0         0         0         0         0         0         0         0
         0         0         0         0         0         0         0         0
         0         0         0         0         0         0         0         0
         0         0         0         0         0         0         0         0
         0         0         0         0         0         0         0         0
         0         0         0         0         0         0         0         0
         0         0         0         0         0         0         0         0
         0         0         0         0         0         0         0         0
         0         0         0         0         0         0         0         0
         0         0         0         0         0         0         0         0
         0         0         0         0         0         0         0         0
         0         0         0         0         0         0         0         0
         0         0         0         0         0         0         0         0
         0         0         0         0         0         0         0         0
         0         0         0         0         0         0         0         0
         0         0         0         0         0         0         0         0
         0         0         0         0         0         0         0         0
         0         0         0         0         0         0         0         0
         0         0         0         0         0         0         0         0
         0         0         0         0         0         0         0         0
         0         0         0         0         0         0         0         0
         0         0         0         0         0         0         0         0
         0         0         0         0         0         0         0         0
         0         0         0         0         0         0         0         0
         0         0         0         0         0         0         0         0
         0         0         0         0         0         0         0         0
         0         0         0         0         0         0         0         0
         0         0         0         0         0         0         0         0
         0         0         0         0         0         0         0         0
         0         0         0         0         0         0         0         0
         0         0         0         0         0         0         0         0
         0         0         0         0         0         0         0         0
         0         0         0         0         0         0         0         0
         0         0         0         0         0         0         0         0
         0         0         0         0         0         0         0         0
         0         0         0         0         0         0         0         0
         0         0         0         0         0         0         0         0
         0         0         0         0         0         0         0         0
         0         0         0         0         0         0         0         0
         0         0         0         0         0         0         0         0
         0         0         0         0         0         0         0         0
         0         0         0         0         0         0         0         0
         0         0         0         0         0         0         0         0
         0         0         0         0         0         0         0         0
         0         0         0         0         0         0         0         0
         0         0         0         0         0         0         0         0
         0         0         0         0         0         0         0         0
         0         0         0         0         0         0         0         0
         0         0         0         0         0         0         0         0
         0         0         0         0         0         0         0         0
         0         0         0         0         0         0         0         0
         0         0         0         0         0         0         0         0
         0         0         0         0         0         0         0         0
         0         0         0         0         0         0         0         0
         0         0         0         0         0         0         0         0
         0         0         0         0         0         0         0         0
         0         0         0         0         0         0         0         0
         0         0         0         0         0         0         0         0
         0         0         0         0         0         0         0         0
         0         0         0         0         0         0         0         0
         0         0         0         0         0         0         0         0
         0         0         0         0         0         0         0         0
         0         0         0         0         0         0         0         0
         0         0         0         0         0         0         0         0
         0         0         0         0         0         0         0         0
         0         0         0         0         0         0         0         0
         0         0         0         0         0         0         0         0
         0         0         0         0         0         0         0         0
         0         0         0         0         0         0         0         0
         0         0         0         0         0         0         0         0
         0         0         0         0         0         0         0         0
         0         0         0         0         0         0         0         0
         0         0         0         0         0         0         0         0
         0         0         0         0         0         0         0         0
         0         0         0         0         0         0         0         0
         0         0         0         0         0         0         0         0
         0         0         0         0         0         0         0         0
         0         0         0         0         0         0         0         0
         0         0         0         0         0         0         0         0
         0         0         0         0         0         0         0         0
         0         0         0         0         0         0         0         0
         0         0         0         0         0         0         0         0
         0         0         0         0         0         0         0         0
         0         0         0         0         0         0         0         0
         0         0         0         0         0         0         0         0
         0         0         0         0         0         0         0         0
         0         0         0         0         0         0         0         0
         0         0         0         0         0         0         0         0
         0         0         0         0         0         0         0         0
         0         0         0         0         0         0         0         0
         0         0         0         0         0         0         0         0
         0         0         0         0         0         0         0         0
         0         0         0         0         0         0         0         0
         0         0         0         0         0         0         0         0
         0         0         0         0         0         0         0         0
         0         0         0         0         0         0         0         0
         0         0         0         0         0         0         0         0
         0         0         0         0         0         0         0         0
         0         0         0         0         0         0         0         0
         0         0         0         0         0         0         0         0
         0         0         0         0         0         0         0         0
         0         0         0         0         0         0         0         0
         0         0         0         0         0         0         0         0
         0         0         0         0         0         0         0         0
         0         0         0         0         0         0         0         0
         0         0         0         0         0         0         0         0
         0         0         0         0         0         0         0         0
         0         0         0         0         0         0         0         0
         0         0         0         0         0         0         0         0
         0         0         0         0         0         0         0         0
         0         0         0         0         0         0         0         0
         0         0         0         0         0         0         0         0
         0         0         0         0         0         0         0         0
         0         0         0         0         0         0         0         0
         0         0         0         0         0         0         0         0
         0         0         0         0         0         0         0         0
         0         0         0         0         0         0         0         0
         0         0         0         0         0         0         0         0
         0         0         0         0         0         0         0         0
         0         0         0         0         0         0         0         0
         0         0         0         0         0         0         0         0
         0         0         0         0         0         0         0         0
         0         0         0         0         0         0         0         0
         0         0         0         0         0         0         0         0
         0         0         0         0         0         0         0         0
         0         0         0         0         0         0         0         0
         0         0         0         0         0         0         0         0
         0         0         0         0         0         0         0         0
         0         0         0         0         0         0         0         0
         0         0         0         0         0         0         0         0
         0         0         0         0         0         0         0         0
         0         0         0         0         0         0         0         0
         0         0         0         0         0         0         0         0
         0         0         0         0         0         0         0         0
         0         0         0         0         0         0         0         0
         0         0         0         0         0         0         0         0
         0         0         0         0         0         0         0         0
         0         0         0         0         0         0         0         0
         0         0         0         0         0         0         0         0
         0         0         0         0         0         0         0         0
         0         0         0         0         0         0         0         0
         0         0         0         0         0         0         0         0
         0         0         0         0         0         0         0         0
         0         0         0         0         0         0         0         0
         0         0         0         0         0         0         0         0
         0         0         0         0         0         0         0         0
         0         0         0         0         0         0         0         0
         0         0         0         0         0         0         0         0
         0         0         0         0         0         0         0         0
         0         0         0         0         0         0         0         0
         0         0         0         0         0         0         0         0
         0         0         0         0         0         0         0         0
         0         0         0         0         0         0         0         0
         0         0         0         0         0         0         0         0
         0         0         0         0         0         0         0         0
         0         0         0         0         0         0         0         0
         0         0         0         0         0         0         0         0
         0         0         0         0         0         0         0         0
         0         0         0         0         0         0         0         0
         0         0         0         0         0         0         0         0
         0         0         0         0         0         0         0         0
         0         0         0         0         0         0         0         0
         0         0         0         0         0         0         0         0
         0         0         0         0         0         0         0         0
         0         0         0         0         0         0         0         0
         0         0         0         0         0         0         0         0
         0         0         0         0         0         0         0         0
         0         0         0         0         0         0         0         0
         0         0         0         0         0         0         0         0
         0         0         0         0         0         0         0         0
         0         0         0         0         0         0         0         0
         0         0         0         0         0         0         0         0
         0         0         0         0         0         0         0         0
         0         0         0         0         0         0         0         0
         0         0         0         0         0         0         0         0
         0         0         0         0         0         0         0         0
         0         0         0         0         0         0         0         0
         0         0         0         0         0         0         0         0
         0         0         0         0         0         0         0         0
         0         0         0         0         0         0         0         0
         0         0         0         0         0         0         0         0
         0         0         0         0         0         0         0         0
         0         0         0         0         0         0         0         0
         0         0         0         0         0         0         0         0
         0         0         0         0         0         0         0         0
         0         0         0         0         0         0         0         0
         0         0         0         0         0         0         0         0
         0         0         0         0         0         0         0         0
         0         0         0         0         0         0         0         0
         0         0         0         0         0         0         0         0
         0         0         0         0         0         0         0         0
         0         0         0         0         0         0         0         0
         0         0         0         0         0         0         0         0
         0         0         0         0         0         0         0         0
         0         0         0         0         0         0         0         0
         0         0         0         0         0         0         0         0
         0         0         0         0         0         0         0         0
         0         0         0         0         0         0         0         0
         0         0         0         0         0         0         0         0
         0         0         0         0         0         0         0         0
         0         0         0         0         0         0         0         0
         0         0         0         0         0         0         0         0
         0         0         0         0         0         0         0         0
         0         0         0         0         0         0         0         0
         0         0         0         0         0         0         0         0
         0         0         0         0         0         0         0         0
         0         0         0         0         0         0         0         0
         0         0         0         0         0         0         0         0
         0         0         0         0         0         0         0         0
         0         0         0         0         0         0         0         0
         0         0         0         0         0         0         0         0
         0         0         0         0         0         0         0         0
         0         0         0         0         0         0         0         0
         0         0         0         0         0         0         0         0
         0         0         0         0         0         0         0         0
         0         0         0         0         0         0         0         0
         0         0         0         0         0         0         0         0
         0         0         0         0         0         0         0         0
         0         0         0         0         0         0         0         0
         0         0         0         0         0         0         0         0
         0         0         0         0         0         0         0         0
         0         0         0         0         0         0         0         0
         0         0         0         0         0         0         0         0
         0         0         0         0         0         0         0         0
         0         0         0         0         0         0         0         0
         0         0         0         0         0         0         0         0
         0         0         0         0         0         0         0         0
         0         0         0         0         0         0         0         0
         0         0         0         0         0         0         0         0
         0         0         0         0         0         0         0         0
         0         0         0         0         0         0         0         0
         0         0         0         0         0         0         0         0
         0         0         0         0         0         0         0         0
         0         0         0         0         0         0         0         0
         0         0         0         0         0         0         0         0
         0         0         0         0         0         0         0         0
         0         0         0         0         0         0         0         0
         0         0         0         0         0         0         0         0
         0         0         0         0         0         0         0         0
         0         0         0         0         0         0         0         0
         0         0         0         0         0         0         0         0
         0         0         0         0         0         0         0         0
         0         0         0         0         0         0         0         0
         0         0         0         0         0         0         0         0
         0         0         0         0         0         0         0         0
         0         0         0         0         0         0         0         0
         0         0         0         0         0         0         0         0
         0         0         0         0         0         0         0         0
         0         0         0         0         0         0         0         0
         0         0         0         0         0         0         0         0
         0         0         0         0         0         0         0         0
         0         0         0         0         0         0         0         0
         0         0         0         0         0         0         0         0
         0         0         0         0         0         0         0         0
         0         0         0         0         0         0         0         0
         0         0         0         0         0         0         0         0
         0         0         0         0         0         0         0         0
         0         0         0         0         0         0         0         0
         0         0         0         0         0         0         0         0
         0         0         0         0         0         0         0         0
         0         0         0         0         0         0         0         0
         0         0         0         0         0         0         0         0
         0         0         0         0         0         0         0         0
         0         0         0         0         0         0         0         0
         0         0         0         0         0         0         0         0
         0         0         0         0         0         0         0         0
         0         0         0         0         0         0         0         0
         0         0         0         0         0         0         0         0
         0         0         0         0         0         0         0         0
         0         0         0         0         0         0         0         0
         0         0         0         0         0         0         0         0
         0         0         0         0         0         0         0         0
         0         0         0         0         0         0         0         0
         0         0         0         0         0         0         0         0
         0         0         0         0         0         0         0         0
         0         0         0         0         0         0         0         0
         0         0         0         0         0         0         0         0
         0         0         0         0         0         0         0         0
         0         0         0         0         0         0         0         0
         0         0         0         0         0         0         0         0
         0         0         0         0         0         0         0         0
         0         0         0         0         0         0         0         0
         0         0         0         0         0         0         0         0
         0         0         0         0         0         0         0         0
         0         0         0         0         0         0         0         0
         0         0         0         0         0         0         0         0
         0         0         0         0         0         0         0         0
         0         0         0         0         0         0         0         0
         0         0         0         0         0         0         0         0
         0         0         0         0         0         0         0         0
         0         0         0         0         0         0         0         0
         0         0         0         0         0         0         0         0
         0         0         0         0         0         0         0         0
         0         0         0         0         0         0         0         0
         0         0         0         0         0         0         0         0
         0         0         0         0         0         0         0         0
         0         0         0         0         0         0         0         0
         0         0         0         0         0         0         0         0
         0         0         0         0         0         0         0         0
         0         0         0         0         0         0         0         0
         0         0         0         0         0         0         0         0
         0         0         0         0         0         0         0         0
         0         0         0         0         0         0         0         0
         0         0         0         0         0         0         0         0
         0         0         0         0         0         0         0         0
         0         0         0         0         0         0         0         0
         0         0         0         0         0         0         0         0
         0         0         0         0         0         0         0         0
         0         0         0         0         0         0         0         0
         0         0         0         0         0         0         0         0
         0         0         0         0         0         0         0         0
         0         0         0         0         0         0         0         0
         0         0         0         0         0         0         0         0
         0         0         0         0         0         0         0         0
         0         0         0         0         0         0         0         0
         0         0         0         0         0         0         0         0
         0         0         0         0         0         0         0         0
         0         0         0         0         0         0         0         0
         0         0         0         0         0         0         0         0
         0         0         0         0         0         0         0         0
         0         0         0         0         0         0         0         0
         0         0         0         0         0         0         0         0
         0         0         0         0         0         0         0         0
         0         0         0         0         0         0         0         0
         0         0         0         0         0         0         0         0
         0         0         0         0         0         0         0         0
         0         0         0         0         0         0         0         0
         0         0         0         0         0         0         0         0
         0         0         0         0         0         0         0         0
         0         0         0         0         0         0         0         0
         0         0         0         0         0         0         0         0
         0         0         0         0         0         0         0         0
         0         0         0         0         0         0         0         0
         0         0         0         0         0         0         0         0
         0         0         0         0         0         0         0         0
         0         0         0         0         0         0         0         0
         0         0         0         0         0         0         0         0
         0         0         0         0         0         0         0         0
         0         0         0         0         0         0         0         0
         0         0         0         0         0         0         0         0
         0         0         0         0         0         0         0         0
         0         0         0         0         0         0         0         0
         0         0         0         0         0         0         0         0
         0         0         0         0         0         0         0         0
         0         0         0         0         0         0         0         0
         0         0         0         0         0         0         0         0
         0         0         0         0         0         0         0         0
         0         0         0         0         0         0         0         0
         0         0         0         0         0         0         0         0
         0         0         0         0         0         0         0         0
         0         0         0         0         0         0         0         0
         0         0         0         0         0         0         0         0
         0         0         0         0         0         0         0         0
         0         0         0         0         0         0         0         0
         0         0         0         0         0         0         0         0
         0         0         0         0         0         0         0         0
         0         0         0         0         0         0         0         0
         0         0         0         0         0         0         0         0
         0         0         0         0         0         0         0         0
         0         0         0         0         0         0         0         0
         0         0         0         0         0         0         0         0
         0         0         0         0         0         0         0         0
         0         0         0         0         0         0         0         0
         0         0         0         0         0         0         0         0
         0         0         0         0         0         0         0         0
         0         0         0         0         0         0         0         0
         0         0         0         0         0         0         0         0
         0         0         0         0         0         0         0         0
         0         0         0         0         0         0         0         0
         0         0         0         0         0         0         0         0
         0         0         0         0         0         0         0         0
         0         0         0         0         0         0         0         0
         0         0         0         0         0         0         0         0
         0         0         0         0         0         0         0         0
         0         0         0         0         0         0         0         0
         0         0         0         0         0         0         0         0
         0         0         0         0         0         0         0         0
         0         0         0         0         0         0         0         0
         0         0         0         0         0         0         0         0
         0         0         0         0         0         0         0         0
         0         0         0         0         0         0         0         0
         0         0         0         0         0         0         0         0
         0         0         0         0         0         0         0         0
         0         0         0         0         0         0         0         0
         0         0         0         0         0         0         0         0
         0         0         0         0         0         0         0         0
         0         0         0         0         0         0         0         0
         0         0         0         0         0         0         0         0
         0         0         0         0         0         0         0         0
         0         0         0         0         0         0         0         0
         0         0         0         0         0         0         0         0
         0         0         0         0         0         0         0         0
         0         0         0         0         0         0         0         0
         0         0         0         0         0         0         0         0
         0         0         0         0         0         0         0         0
         0         0         0         0         0         0         0         0
         0         0         0         0         0         0         0         0
         0         0         0         0         0         0         0         0
         0         0         0         0         0         0         0         0
         0         0         0         0         0         0         0         0
         0         0         0         0         0         0         0         0
         0         0         0         0         0         0         0         0
         0         0         0         0         0         0         0         0
         0         0         0         0         0         0         0         0
         0         0         0         0         0         0         0         0
         0         0         0         0         0         0         0         0
         0         0         0         0         0         0         0         0
         0         0         0         0         0         0         0         0
         0         0         0         0         0         0         0         0
         0         0         0         0         0         0         0         0
         0         0         0         0         0         0         0         0
         0         0         0         0         0         0         0         0
         0         0         0         0         0         0         0         0
         0         0         0         0         0         0         0         0
         0         0         0         0         0         0         0         0
         0         0         0         0         0         0         0         0
         0         0         0         0         0         0         0         0
         0         0         0         0         0         0         0         0
         0         0         0         0         0         0         0         0
         0         0         0         0         0         0         0         0
         0         0         0         0         0         0         0         0
         0         0         0         0         0         0         0         0
         0         0         0         0         0         0         0         0
         0         0         0         0         0         0         0         0
         0         0         0         0         0         0         0         0
         0         0         0         0         0         0         0         0
         0         0         0         0         0         0         0         0
         0         0         0         0         0         0         0         0
         0         0         0         0         0         0         0         0
         0         0         0         0         0         0         0         0
         0         0         0         0         0         0         0         0
         0         0         0         0         0         0         0         0
         0         0         0         0         0         0         0         0
         0         0         0         0         0         0         0         0
         0         0         0         0         0         0         0         0
         0         0         0         0         0         0         0         0
         0         0         0         0         0         0         0         0
         0         0         0         0         0         0         0         0
         0         0         0         0         0         0         0         0
         0         0         0         0         0         0         0         0
         0         0         0         0         0         0         0         0
         0         0         0         0         0         0         0         0
         0         0         0         0         0         0         0         0
         0         0         0         0         0         0         0         0
         0         0         0         0         0         0         0         0
         0         0         0         0         0         0         0         0
         0         0         0         0         0         0         0         0
         0         0         0         0         0         0         0         0
         0         0         0         0         0         0         0         0
         0         0         0         0         0         0         0         0
         0         0         0         0         0         0         0         0
         0         0         0         0         0         0         0         0
         0         0         0         0         0         0         0         0
         0         0         0         0         0         0         0         0
         0         0         0         0         0         0         0         0
         0         0         0         0         0         0         0         0
         0         0         0         0         0         0         0         0
         0         0         0         0         0         0         0         0
         0         0         0         0         0         0         0         0
         0         0         0         0         0         0         0         0
         0         0         0         0         0         0         0         0
         0         0         0         0         0         0         0         0
         0         0         0         0         0         0         0         0
         0         0         0         0         0         0         0         0
         0         0         0         0         0         0         0         0
         0         0         0         0         0         0         0         0
         0         0         0         0         0         0         0         0
         0         0         0         0         0         0         0         0
         0         0         0         0         0         0         0         0
         0         0         0         0         0         0         0         0
         0         0         0         0         0         0         0         0
         0         0         0         0         0         0         0         0
         0         0         0         0         0         0         0         0
         0         0         0         0         0         0         0         0
         0         0         0         0         0         0         0         0
         0         0         0         0         0         0         0         0
         0         0         0         0         0         0         0         0
         0         0         0         0         0         0         0         0
         0         0         0         0         0         0         0         0
         0         0         0         0         0         0         0         0
         0         0         0         0         0         0         0         0
         0         0         0         0         0         0         0         0
         0         0         0         0         0         0         0         0
         0         0         0         0         0         0         0         0
         0         0         0         0         0         0         0         0
         0         0         0         0         0         0         0         0
         0         0         0         0         0         0         0         0
         0         0         0         0         0         0         0         0
         0         0         0         0         0         0         0         0
         0         0         0         0         0         0         0         0
         0         0         0         0         0         0         0         0
         0         0         0         0         0         0         0         0
         0         0         0         0         0         0         0         0
         0         0         0         0         0         0         0         0
         0         0         0         0         0         0         0         0
         0         0         0         0         0         0         0         0
         0         0         0         0         0         0         0         0
         0         0         0         0         0         0         0         0
         0         0         0         0         0         0         0         0
         0         0         0         0         0         0         0         0
         0         0         0         0         0         0         0         0
         0         0         0         0         0         0         0         0
         0         0         0         0         0         0         0         0
         0         0         0         0         0         0         0         0
         0         0         0         0         0         0         0         0
         0         0         0         0         0         0         0         0
         0         0         0         0         0         0         0         0
         0         0         0         0         0         0         0         0
         0         0         0         0         0         0         0         0
         0         0         0         0         0         0         0         0
         0         0         0         0         0         0         0         0
         0         0         0         0         0         0         0         0
         0         0         0         0         0         0         0         0
         0         0         0         0         0         0         0         0
         0         0         0         0         0         0         0         0
         0         0         0         0         0         0         0         0
         0         0         0         0         0         0         0         0
         0         0         0         0         0         0         0         0
         0         0         0         0         0         0         0         0
         0         0         0         0         0         0         0         0
         0         0         0         0         0         0         0         0
         0         0         0         0         0         0         0         0
         0         0         0         0         0         0         0         0
         0         0         0         0         0         0         0         0
         0         0         0         0         0         0         0         0
         0         0         0         0         0         0         0         0
         0         0         0         0         0         0         0         0
         0         0         0         0         0         0         0         0
         0         0         0         0         0         0         0         0
         0         0         0         0         0         0         0         0
         0         0         0         0         0         0         0         0
         0         0         0         0         0         0         0         0
         0         0         0         0         0         0         0         0
         0         0         0         0         0         0         0         0
         0         0         0         0         0         0         0         0
         0         0         0         0         0         0         0         0
         0         0         0         0         0         0         0         0
         0         0         0         0         0         0         0         0
         0         0         0         0         0         0         0         0
         0         0         0         0         0         0         0         0
         0         0         0         0         0         0         0         0
         0         0         0         0         0         0         0         0
         0         0         0         0         0         0         0         0
         0         0         0         0         0         0         0         0
         0         0         0         0         0         0         0         0
         0         0         0         0         0         0         0         0
         0         0         0         0         0         0         0         0
         0         0         0         0         0         0         0         0
         0         0         0         0         0         0         0         0
         0         0         0         0         0         0         0         0
         0         0         0         0         0         0         0         0
         0         0         0         0         0         0         0         0
         0         0         0         0         0         0         0         0
         0         0         0         0         0         0         0         0
         0         0         0         0         0         0         0         0
         0         0         0         0         0         0         0         0
         0         0         0         0         0         0         0         0
         0         0         0         0         0         0         0         0
         0         0         0         0         0         0         0         0
         0         0         0         0         0         0         0         0
         0         0         0         0         0         0         0         0
         0         0         0         0         0         0         0         0
         0         0         0         0         0         0         0         0
         0         0         0         0         0         0         0         0
         0         0         0         0         0         0         0         0
         0         0         0         0         0         0         0         0
         0         0         0         0         0         0         0         0
         0         0         0         0         0         0         0         0
         0         0         0         0         0         0         0         0
         0         0         0         0         0         0         0         0
         0         0         0         0         0         0         0         0
         0         0         0         0         0         0         0         0
         0         0         0         0         0         0         0         0
         0         0         0         0         0         0         0         0
         0         0         0         0         0         0         0         0
         0         0         0         0         0         0         0         0
         0         0         0         0         0         0         0         0
         0         0         0         0         0         0         0         0
         0         0         0         0         0         0         0         0
         0         0         0         0         0         0         0         0
         0         0         0         0         0         0         0         0
         0         0         0         0         0         0         0         0
         0         0         0         0         0         0         0         0
         0         0         0         0         0         0         0         0
         0         0         0         0         0         0         0         0
         0         0         0         0         0         0         0         0
         0         0         0         0         0         0         0         0
         0         0         0         0         0         0         0         0
         0         0         0         0         0         0         0         0
         0         0         0         0         0         0         0         0
         0         0         0         0         0         0         0         0
         0         0         0         0         0         0         0         0
         0         0         0         0         0         0         0         0
         0         0         0         0         0         0         0         0
         0         0         0         0         0         0         0         0
         0         0         0         0         0         0         0         0
         0         0         0         0         0         0         0         0
         0         0         0         0         0         0         0         0
         0         0         0         0         0         0         0         0
         0         0         0         0         0         0         0         0
         0         0         0         0         0         0         0         0
         0         0         0         0         0         0         0         0
         0         0         0         0         0         0         0         0
         0         0         0         0         0         0         0         0
         0         0         0         0         0         0         0         0
         0         0         0         0         0         0         0         0
         0         0         0         0         0         0         0         0
         0         0         0         0         0         0         0         0
         0         0         0         0         0         0         0         0
         0         0         0         0         0         0         0         0
         0         0         0         0         0         0         0         0
         0         0         0         0         0         0         0         0
         0         0         0         0         0         0         0         0
         0         0         0         0         0         0         0         0
         0         0         0         0         0         0         0         0
         0         0         0         0         0         0         0         0
         0         0         0         0         0         0         0         0
         0         0         0         0         0         0         0         0
         0         0         0         0         0         0         0         0
         0         0         0         0         0         0         0         0
         0         0         0         0         0         0         0         0
         0         0         0         0         0         0         0         0
         0         0         0         0         0         0         0         0
         0         0         0         0         0         0         0         0
         0         0         0         0         0         0         0         0
         0         0         0         0         0         0         0         0
         0         0         0         0         0         0         0         0
         0         0         0         0         0         0         0         0
         0         0         0         0         0         0         0         0
         0         0         0         0         0         0         0         0
         0         0         0         0         0         0         0         0
         0         0         0         0         0         0         0         0
         0         0         0         0         0         0         0         0
         0         0         0         0         0         0         0         0
         0         0         0         0         0         0         0         0
         0         0         0         0         0         0         0         0
         0         0         0         0         0         0         0         0
         0         0         0         0         0         0         0         0
         0         0         0         0         0         0         0         0
         0         0         0         0         0         0         0         0
         0         0         0         0         0         0         0         0
         0         0         0         0         0         0         0         0
         0         0         0         0         0         0         0         0
         0         0         0         0         0         0         0         0
         0         0         0         0         0         0         0         0
         0         0         0         0         0         0         0         0
         0         0         0         0         0         0         0         0
         0         0         0         0         0         0         0         0
         0         0         0         0         0         0         0         0
         0         0         0         0         0         0         0         0
         0         0         0         0         0         0         0         0
         0         0         0         0         0         0         0         0
         0         0         0         0         0         0         0         0
         0         0         0         0         0         0         0         0
         0         0         0         0         0         0         0         0
         0         0         0         0         0         0         0         0
         0         0         0         0         0         0         0         0
         0         0         0         0         0         0         0         0
         0         0         0         0         0         0         0         0
         0         0         0         0         0         0         0         0
         0         0         0         0         0         0         0         0
         0         0         0         0         0         0         0         0
         0         0         0         0         0         0         0         0
         0         0         0         0         0         0         0         0
         0         0         0         0         0         0         0         0
         0         0         0         0         0         0         0         0
         0         0         0         0         0         0         0         0
         0         0         0         0         0         0         0         0
         0         0         0         0         0         0         0         0
         0         0         0         0         0         0         0         0
         0         0         0         0         0         0         0         0
         0         0         0         0         0         0         0         0
         0         0         0         0         0         0         0         0
         0         0         0         0         0         0         0         0
         0         0         0         0         0         0         0         0
         0         0         0         0         0         0         0         0
         0         0         0         0         0         0         0         0
         0         0         0         0         0         0         0         0
         0         0         0         0         0         0         0         0
         0         0         0         0         0         0         0         0
         0         0         0         0         0         0         0         0
         0         0         0         0         0         0         0         0
         0         0         0         0         0         0         0         0
         0         0         0         0         0         0         0         0
         0         0         0         0         0         0         0         0
         0         0         0         0         0         0         0         0
         0         0         0         0         0         0         0         0
         0         0         0         0         0         0         0         0
         0         0         0         0         0         0         0         0
         0         0         0         0         0         0         0         0
         0         0         0         0         0         0         0         0
         0         0         0         0         0         0         0         0
         0         0         0         0         0         0         0         0
         0         0         0         0         0         0         0         0
         0         0         0         0         0         0         0         0
         0         0         0         0         0         0         0         0
         0         0         0         0         0         0         0         0
         0         0         0         0         0         0         0         0
         0         0         0         0         0         0         0         0
         0         0         0         0         0         0         0         0
         0         0         0         0         0         0         0         0
         0         0         0         0         0         0         0         0
         0         0         0         0         0         0         0         0
         0         0         0         0         0         0         0         0
         0         0         0         0         0         0         0         0
         0         0         0         0         0         0         0         0
         0         0         0         0         0         0         0         0
         0         0         0         0         0         0         0         0
         0         0         0         0         0         0         0         0
         0         0         0         0         0         0         0         0
         0         0         0         0         0         0         0         0
         0         0         0         0         0         0         0         0
         0         0         0         0         0         0         0         0
         0         0         0         0         0         0         0         0
         0         0         0         0         0         0         0         0
         0         0         0         0         0         0         0         0
         0         0         0         0         0         0         0         0
         0         0         0         0         0         0         0         0
         0         0         0         0         0         0         0         0
         0         0         0         0         0         0         0         0
         0         0         0         0         0         0         0         0
         0         0         0         0         0         0         0         0
         0         0         0         0         0         0         0         0
         0         0         0         0         0         0         0         0
         0         0         0         0         0         0         0         0
         0         0         0         0         0         0         0         0
         0         0         0         0         0         0         0         0
         0         0         0         0         0         0         0         0
         0         0         0         0         0         0         0         0
         0         0         0         0         0         0         0         0
         0         0         0         0         0         0         0         0
         0         0         0         0         0         0         0         0
         0         0         0         0         0         0         0         0
         0         0         0         0         0         0         0         0
         0         0         0         0         0         0         0         0
         0         0         0         0         0         0         0         0
         0         0         0         0         0         0         0         0
         0         0         0         0         0         0         0         0
         0         0         0         0         0         0         0         0
         0         0         0         0         0         0         0         0
         0         0         0         0         0         0         0         0
         0         0         0         0         0         0         0         0
         0         0         0         0         0         0         0         0
         0         0         0         0         0         0         0         0
         0         0         0         0         0         0         0         0
         0         0         0         0         0         0         0         0
         0         0         0         0         0         0         0         0
         0         0         0         0         0         0         0         0
         0         0         0         0         0         0         0         0
         0         0         0         0         0         0         0         0
         0         0         0         0         0         0         0         0
         0         0         0         0         0         0         0         0
         0         0         0         0         0         0         0         0
         0         0         0         0         0         0         0         0
         0         0         0         0         0         0         0         0
         0         0         0         0         0         0         0         0
         0         0         0         0         0         0         0         0
         0         0         0         0         0         0         0         0
         0         0         0         0         0         0         0         0
         0         0         0         0         0         0         0         0
         0         0         0         0         0         0         0         0
         0         0         0         0         0         0         0         0
         0         0         0         0         0         0         0         0
         0         0         0         0         0         0         0         0
         0         0         0         0         0         0         0         0
         0         0         0         0         0         0         0         0
         0         0         0         0         0         0         0         0
         0         0         0         0         0         0         0         0
         0         0         0         0         0         0         0         0
         0         0         0         0         0         0         0         0
         0         0         0         0         0         0         0         0
         0         0         0         0         0         0         0         0
         0         0         0         0         0         0         0         0
         0         0         0         0         0         0         0         0
         0         0         0         0         0         0         0         0
         0         0         0         0         0         0         0         0
         0         0         0         0         0         0         0         0
         0         0         0         0         0         0         0         0
         0         0         0         0         0         0         0         0
         0         0         0         0         0         0         0         0
         0         0         0         0         0         0         0         0
         0         0         0         0         0         0         0         0
         0         0         0         0         0         0         0         0
         0         0         0         0         0         0         0         0
         0         0         0         0         0         0         0         0
         0         0         0         0         0         0         0         0
         0         0         0         0         0         0         0         0
         0         0         0         0         0         0         0         0
         0         0         0         0         0         0         0         0
         0         0         0         0         0         0         0         0
         0         0         0         0         0         0         0         0
         0         0         0         0         0         0         0         0
         0         0         0         0         0         0         0         0
         0         0         0         0         0         0         0         0
         0         0         0         0         0         0         0         0
         0         0         0         0         0         0         0         0
         0         0         0         0         0         0         0         0
         0         0         0         0         0         0         0         0
         0         0         0         0         0         0         0         0
         0         0         0         0         0         0         0         0
         0         0         0         0         0         0         0         0
         0         0         0         0         0         0         0         0
         0         0         0         0         0         0         0         0
         0         0         0         0         0         0         0         0
         0         0         0         0         0         0         0         0
         0         0         0         0         0         0         0         0
         0         0         0         0         0         0         0         0
         0         0         0         0         0         0         0         0
         0         0         0         0         0         0         0         0
         0         0         0         0         0         0         0         0
         0         0         0         0         0         0         0         0
         0         0         0         0         0         0         0         0
         0         0         0         0         0         0         0         0
         0         0         0         0         0         0         0         0
         0         0         0         0         0         0         0         0
         0         0         0         0         0         0         0         0
         0         0         0         0         0         0         0         0
         0         0         0         0         0         0         0         0
         0         0         0         0         0         0         0         0
         0         0         0         0         0         0         0         0
         0         0         0         0         0         0         0         0
         0         0         0         0         0         0         0         0
         0         0         0         0         0         0         0         0
         0         0         0         0         0         0         0         0
         0         0         0         0         0         0         0         0
         0         0         0         0         0         0         0         0
         0         0         0         0         0         0         0         0
         0         0         0         0         0         0         0         0
         0         0         0         0         0         0         0         0
         0         0         0         0         0         0         0         0
         0         0         0         0         0         0         0         0
         0         0         0         0         0         0         0         0
         0         0         0         0         0         0         0         0
         0         0         0         0         0         0         0         0
         0         0         0         0         0         0         0         0
         0         0         0         0         0         0         0         0
         0         0         0         0         0         0         0         0
         0         0         0         0         0         0         0         0
         0         0         0         0         0         0         0         0
         0         0         0         0         0         0         0         0
         0         0         0         0         0         0         0         0
         0         0         0         0         0         0         0         0
         0         0         0         0         0         0         0         0
         0         0         0         0         0         0         0         0
         0         0         0         0         0         0         0         0
         0         0         0         0         0         0         0         0
         0         0         0         0         0         0         0         0
         0         0         0         0         0         0         0         0
         0         0         0         0         0         0         0         0
         0         0         0         0         0         0         0         0
         0         0         0         0         0         0         0         0
         0         0         0         0         0         0         0         0
         0         0         0         0         0         0         0         0
         0         0         0         0         0         0         0         0
         0         0         0         0         0         0         0         0
         0         0         0         0         0         0         0         0
         0         0         0         0         0         0         0         0
         0         0         0         0         0         0         0         0
         0         0         0         0         0         0         0         0
         0         0         0         0         0         0         0         0
         0         0         0         0         0         0         0         0
         0         0         0         0         0         0         0         0
         0         0         0         0         0         0         0         0
         0         0         0         0         0         0         0         0
         0         0         0         0         0         0         0         0
         0         0         0         0         0         0         0         0
         0         0         0         0         0         0         0         0
         0         0         0         0         0         0         0         0
         0         0         0         0         0         0         0         0
         0         0         0         0         0         0         0         0
         0         0         0         0         0         0         0         0
         0         0         0         0         0         0         0         0
         0         0         0         0         0         0         0         0
         0         0         0         0         0         0         0         0
         0         0         0         0         0         0         0         0
         0         0         0         0         0         0         0         0
         0         0         0         0         0         0         0         0
         0         0         0         0         0         0         0         0
         0         0         0         0         0         0         0         0
         0         0         0         0         0         0         0         0
         0         0         0         0         0         0         0         0
         0         0         0         0         0         0         0         0
         0         0         0         0         0         0         0         0
         0         0         0         0         0         0         0         0
         0         0         0         0         0         0         0         0
         0         0         0         0         0         0         0         0
         0         0         0         0         0         0         0         0
         0         0         0         0         0         0         0         0
         0         0         0         0         0         0         0         0
         0         0         0         0         0         0         0         0
         0         0         0         0         0         0         0         0
         0         0         0         0         0         0         0         0
         0         0         0         0         0         0         0         0
         0         0         0         0         0         0         0         0
         0         0         0         0         0         0         0         0
         0         0         0         0         0         0         0         0
         0         0         0         0         0         0         0         0
         0         0         0         0         0         0         0         0
         0         0         0         0         0         0         0         0
         0         0         0         0         0         0         0         0
         0         0         0         0         0         0         0         0
         0         0         0         0         0         0         0         0
         0         0         0         0         0         0         0         0
         0         0         0         0         0         0         0         0
         0         0         0         0         0         0         0         0
         0         0         0         0         0         0         0         0
         0         0         0         0         0         0         0         0
         0         0         0         0         0         0         0         0
         0         0         0         0         0         0         0         0
         0         0         0         0         0         0         0         0
         0         0         0         0         0         0         0         0
         0         0         0         0         0         0         0         0
         0         0         0         0         0         0         0         0
         0         0         0         0         0         0         0         0
         0         0         0         0         0         0         0         0
         0         0         0         0         0         0         0         0
         0         0         0         0         0         0         0         0
         0         0         0         0         0         0         0         0
         0         0         0         0         0         0         0         0
         0         0         0         0         0         0         0         0
         0         0         0         0         0         0         0         0
         0         0         0         0         0         0         0         0
         0         0         0         0         0         0         0         0
         0         0         0         0         0         0         0         0
         0         0         0         0         0         0         0         0
         0         0         0         0         0         0         0         0
         0         0         0         0         0         0         0         0
         0         0         0         0         0         0         0         0
         0         0         0         0         0         0         0         0
         0         0         0         0         0         0         0         0
         0         0         0         0         0         0         0         0
         0         0         0         0         0         0         0         0
         0         0         0         0         0         0         0         0
         0         0         0         0         0         0         0         0
         0         0         0         0         0         0         0         0
         0         0         0         0         0         0         0         0
         0         0         0         0         0         0         0         0
         0         0         0         0         0         0         0         0
         0         0         0         0         0         0         0         0
         0         0         0         0         0         0         0         0
         0         0         0         0         0         0         0         0
         0         0         0         0         0         0         0         0
         0         0         0         0         0         0         0         0
         0         0         0         0         0         0         0         0
         0         0         0         0         0         0         0         0
         0         0         0         0         0         0         0         0
         0         0         0         0         0         0         0         0
         0         0         0         0         0         0         0         0
         0         0         0         0         0         0         0         0
         0         0         0         0         0         0         0         0
         0         0         0         0         0         0         0         0
         0         0         0         0         0         0         0         0
         0         0         0         0         0         0         0         0
         0         0         0         0         0         0         0         0
         0         0         0         0         0         0         0         0
         0         0         0         0         0         0         0         0
         0         0         0         0         0         0         0         0
         0         0         0         0         0         0         0         0
         0         0         0         0         0         0         0         0
         0         0         0         0         0         0         0         0
         0         0         0         0         0         0         0         0
         0         0         0         0         0         0         0         0
         0         0         0         0         0         0         0         0
         0         0         0         0         0         0         0         0
         0         0         0         0         0         0         0         0
         0         0         0         0         0         0         0         0
         0         0         0         0         0         0         0         0
         0         0         0         0         0         0         0         0
         0         0         0         0         0         0         0         0
         0         0         0         0         0         0         0         0
         0         0         0         0         0         0         0         0
         0         0         0         0         0         0         0         0
         0         0         0         0         0         0         0         0
         0         0         0         0         0         0         0         0
         0         0         0         0         0         0         0         0
         0         0         0         0         0         0         0         0
         0         0         0         0         0         0         0         0
         0         0         0         0         0         0         0         0
         0         0         0         0         0         0         0         0
         0         0         0         0         0         0         0         0
         0         0         0         0         0         0         0         0
         0         0         0         0         0         0         0         0
         0         0         0         0         0         0         0         0
         0         0         0         0         0         0         0         0
         0         0         0         0         0         0         0         0
         0         0         0         0         0         0         0         0
         0         0         0         0         0         0         0         0
         0         0         0         0         0         0         0         0
         0         0         0         0         0         0         0         0
         0         0         0         0         0         0         0         0
         0         0         0         0         0         0         0         0
         0         0         0         0         0         0         0         0
         0         0         0         0         0         0         0         0
         0         0         0         0         0         0         0         0
         0         0         0         0         0         0         0         0
         0         0         0         0         0         0         0         0
         0         0         0         0         0         0         0         0
         0         0         0         0         0         0         0         0
         0         0         0         0         0         0         0         0
         0         0         0         0         0         0         0         0
         0         0         0         0         0         0         0         0
         0         0         0         0         0         0         0         0
         0         0         0         0         0         0         0         0
         0         0         0         0         0         0         0         0
         0         0         0         0         0         0         0         0
         0         0         0         0         0         0         0         0
         0         0         0         0         0         0         0         0
         0         0         0         0         0         0         0         0
         0         0         0         0         0         0         0         0
         0         0         0         0         0         0         0         0
         0         0         0         0         0         0         0         0
         0         0         0         0         0         0         0         0
         0         0         0         0         0         0         0         0
         0         0         0         0         0         0         0         0
         0         0         0         0         0         0         0         0
         0         0         0         0         0         0         0         0
         0         0         0         0         0         0         0         0
         0         0         0         0         0         0         0         0
         0         0         0         0         0         0         0         0
         0         0         0         0         0         0         0         0
         0         0         0         0         0         0         0         0
         0         0         0         0         0         0         0         0
         0         0         0         0         0         0         0         0
         0         0         0         0         0         0         0         0
         0         0         0         0         0         0         0         0
         0         0         0         0         0         0         0         0
         0         0         0         0         0         0         0         0
         0         0         0         0         0         0         0         0
         0         0         0         0         0         0         0         0
         0         0         0         0         0         0         0         0
         0         0         0         0         0         0         0         0
         0         0         0         0         0         0         0         0
         0         0         0         0         0         0         0         0
         0         0         0         0         0         0         0         0
         0         0         0         0         0         0         0         0
         0         0         0         0         0         0         0         0
         0         0         0         0         0         0         0         0
         0         0         0         0         0         0         0         0
         0         0         0         0         0         0         0         0
         0         0         0         0         0         0         0         0
         0         0         0         0         0         0         0         0
         0         0         0         0         0         0         0         0
         0         0         0         0         0         0         0         0
         0         0         0         0         0         0         0         0
         0         0         0         0         0         0         0         0
         0         0         0         0         0         0         0         0
         0         0         0         0         0         0         0         0
         0         0         0         0         0         0         0         0
         0         0         0         0         0         0         0         0
         0         0         0         0         0         0         0         0
         0         0         0         0         0         0         0         0
         0         0         0         0         0         0         0         0
         0         0         0         0         0         0         0         0
         0         0         0         0         0         0         0         0
         0         0         0         0         0         0         0         0
         0         0         0         0         0         0         0         0
         0         0         0         0         0         0         0         0
         0         0         0         0         0         0         0         0
         0         0         0         0         0         0         0         0
         0         0         0         0         0         0         0         0
         0         0         0         0         0         0         0         0
         0         0         0         0         0         0         0         0
         0         0         0         0         0         0         0         0
         0         0         0         0         0         0         0         0
         0         0         0         0         0         0         0         0
         0         0         0         0         0         0         0         0
         0         0         0         0         0         0         0         0
         0         0         0         0         0         0         0         0
         0         0         0         0         0         0         0         0
         0         0         0         0         0         0         0         0
         0         0         0         0         0         0         0         0
         0         0         0         0         0         0         0         0
         0         0         0         0         0         0         0         0
         0         0         0         0         0         0         0         0
         0         0         0         0         0         0         0         0
         0         0         0         0         0         0         0         0
         0         0         0         0         0         0         0         0
         0         0         0         0         0         0         0         0
         0         0         0         0         0         0         0         0
         0         0         0         0         0         0         0         0
         0         0         0         0         0         0         0         0
         0         0         0         0         0         0         0         0
         0         0         0         0         0         0         0         0
         0         0         0         0         0         0         0         0
         0         0         0         0         0         0         0         0
         0         0         0         0         0         0         0         0
         0         0         0         0         0         0         0         0
         0         0         0         0         0         0         0         0
         0         0         0         0         0         0         0         0
         0         0         0         0         0         0         0         0
         0         0         0         0         0         0         0         0
         0         0         0         0         0         0         0         0
         0         0         0         0         0         0         0         0
         0         0         0         0         0         0         0         0
         0         0         0         0         0         0         0         0
         0         0         0         0         0         0         0         0
         0         0         0         0         0         0         0         0
         0         0         0         0         0         0         0         0
         0         0         0         0         0         0         0         0
         0         0         0         0         0         0         0         0
         0         0         0         0         0         0         0         0
         0         0         0         0         0         0         0         0
         0         0         0         0         0         0         0         0
         0         0         0         0         0         0         0         0
         0         0         0         0         0         0         0         0
         0         0         0         0         0         0         0         0
         0         0         0         0         0         0         0         0
         0         0         0         0         0         0         0         0
         0         0         0         0         0         0         0         0
         0         0         0         0         0         0         0         0
         0         0         0         0         0         0         0         0
         0         0         0         0         0         0         0         0
         0         0         0         0         0         0         0         0
         0         0         0         0         0         0         0         0
         0         0         0         0         0         0         0         0
         0         0         0         0         0         0         0         0
         0         0         0         0         0         0         0         0
         0         0         0         0         0         0         0         0
         0         0         0         0         0         0         0         0
         0         0         0         0         0         0         0         0
         0         0         0         0         0         0         0         0
         0         0         0         0         0         0         0         0
         0         0         0         0         0         0         0         0
         0         0         0         0         0         0         0         0
         0         0         0         0         0         0         0         0
         0         0         0         0         0         0         0         0
         0         0         0         0         0         0         0         0
         0         0         0         0         0         0         0         0
         0         0         0         0         0         0         0         0
         0         0         0         0         0         0         0         0
         0         0         0         0         0         0         0         0
         0         0         0         0         0         0         0         0
         0         0         0         0         0         0         0         0
         0         0         0         0         0         0         0         0
         0         0         0         0         0         0         0         0
         0         0         0         0         0         0         0         0
         0         0         0         0         0         0         0         0
         0         0         0         0         0         0         0         0
         0         0         0         0         0         0         0         0
         0         0         0         0         0         0         0         0
         0         0         0         0         0         0         0         0
         0         0         0         0         0         0         0         0
         0         0         0         0         0         0         0         0
         0         0         0         0         0         0         0         0
         0         0         0         0         0         0         0         0
         0         0         0         0         0         0         0         0
         0         0         0         0         0         0         0         0
         0         0         0         0         0         0         0         0
         0         0         0         0         0         0         0         0
         0         0         0         0         0         0         0         0
         0         0         0         0         0         0         0         0
         0         0         0         0         0         0         0         0
         0         0         0         0         0         0         0         0
         0         0         0         0         0         0         0         0
         0         0         0         0         0         0         0         0
         0         0         0         0         0         0         0         0
         0         0         0         0         0         0         0         0
         0         0         0         0         0         0         0         0
         0         0         0         0         0         0         0         0
         0         0         0         0         0         0         0         0
         0         0         0         0         0         0         0         0
         0         0         0         0         0         0         0         0
         0         0         0         0         0         0         0         0
         0         0         0         0         0         0         0         0
         0         0         0         0         0         0         0         0
         0         0         0         0         0         0         0         0
         0         0         0         0         0         0         0         0
         0         0         0         0         0         0         0         0
         0         0         0         0         0         0         0         0
         0         0         0         0         0         0         0         0
         0         0         0         0         0         0         0         0
         0         0         0         0         0         0         0         0
         0         0         0         0         0         0         0         0
         0         0         0         0         0         0         0         0
         0         0         0         0         0         0         0         0
         0         0         0         0         0         0         0         0
         0         0         0         0         0         0         0         0
         0         0         0         0         0         0         0         0
         0         0         0         0         0         0         0         0
         0         0         0         0         0         0         0         0
         0         0         0         0         0         0         0         0
         0         0         0         0         0         0         0         0
         0         0         0         0         0         0         0         0
         0         0         0         0         0         0         0         0
         0         0         0         0         0         0         0         0
         0         0         0         0         0         0         0         0
         0         0         0         0         0         0         0         0
         0         0         0         0         0         0         0         0
         0         0         0         0         0         0         0         0
         0         0         0         0         0         0         0         0
         0         0         0         0         0         0         0         0
         0         0         0         0         0         0         0         0
         0         0         0         0         0         0         0         0
         0         0         0         0         0         0         0         0
         0         0         0         0         0         0         0         0
         0         0         0         0         0         0         0         0
         0         0         0         0         0         0         0         0
         0         0         0         0         0         0         0         0
         0         0         0         0         0         0         0         0
         0         0         0         0         0         0         0         0
         0         0         0         0         0         0         0         0
         0         0         0         0         0         0         0         0
         0         0         0         0         0         0         0         0
         0         0         0         0         0         0         0         0
         0         0         0         0         0         0         0         0
         0         0         0         0         0         0         0         0
         0         0         0         0         0         0         0         0
         0         0         0         0         0         0         0         0
         0         0         0         0         0         0         0         0
         0         0         0         0         0         0         0         0
         0         0         0         0         0         0         0         0
         0         0         0         0         0         0         0         0
         0         0         0         0         0         0         0         0
         0         0         0         0         0         0         0         0
         0         0         0         0         0         0         0         0
         0         0         0         0         0         0         0         0
         0         0         0         0         0         0         0         0
         0         0         0         0         0         0         0         0
         0         0         0         0         0         0         0         0
         0         0         0         0         0         0         0         0
         0         0         0         0         0         0         0         0
         0         0         0         0         0         0         0         0
         0         0         0         0         0         0         0         0
         0         0         0         0         0         0         0         0
         0         0         0         0         0         0         0         0
         0         0         0         0         0         0         0         0
         0         0         0         0         0         0         0         0
         0         0         0         0         0         0         0         0
         0         0         0         0         0         0         0         0
         0         0         0         0         0         0         0         0
         0         0         0         0         0         0         0         0
         0         0         0         0         0         0         0         0
         0         0         0         0         0         0         0         0
         0         0         0         0         0         0         0         0
         0         0         0         0         0         0         0         0
         0         0         0         0         0         0         0         0
         0         0         0         0         0         0         0         0
         0         0         0         0         0         0         0         0
         0         0         0         0         0         0         0         0
         0         0         0         0         0         0         0         0
         0         0         0         0         0         0         0         0
         0         0         0         0         0         0         0         0
         0         0         0         0         0         0         0         0
         0         0         0         0         0         0         0         0
         0         0         0         0         0         0         0         0
         0         0         0         0         0         0         0         0
         0         0         0         0         0         0         0         0
         0         0         0         0         0         0         0         0
         0         0         0         0         0         0         0         0
         0         0         0         0         0         0         0         0
         0         0         0         0         0         0         0         0
         0         0         0         0         0         0         0         0
         0         0         0         0         0         0         0         0
         0         0         0         0         0         0         0         0
         0         0         0         0         0         0         0         0
         0         0         0         0         0         0         0         0
         0         0         0         0         0         0         0         0
         0         0         0         0         0         0         0         0
         0         0         0         0         0         0         0         0
         0         0         0         0         0         0         0         0
         0         0         0         0         0         0         0         0
         0         0         0         0         0         0         0         0
         0         0         0         0         0         0         0         0
         0         0         0         0         0         0         0         0
         0         0         0         0         0         0         0         0
         0         0         0         0         0         0         0         0
         0         0         0         0         0         0         0         0
         0         0         0         0         0         0         0         0
         0         0         0         0         0         0         0         0
         0         0         0         0         0         0         0         0
         0         0         0         0         0         0         0         0
         0         0         0         0         0         0         0         0
         0         0         0         0         0         0         0         0
         0         0         0         0         0         0         0         0
         0         0         0         0         0         0         0         0
         0         0         0         0         0         0         0         0
         0         0         0         0         0         0         0         0
         0         0         0         0         0         0         0         0
         0         0         0         0         0         0         0         0
         0         0         0         0         0         0         0         0
         0         0         0         0         0         0         0         0
         0         0         0         0         0         0         0         0
         0         0         0         0         0         0         0         0
         0         0         0         0         0         0         0         0
         0         0         0         0         0         0         0         0
         0         0         0         0         0         0         0         0
         0         0         0         0         0         0         0         0
         0         0         0         0         0         0         0         0
         0         0         0         0         0         0         0         0
         0         0         0         0         0         0         0         0
         0         0         0         0         0         0         0         0
         0         0         0         0         0         0         0         0
         0         0         0         0         0         0         0         0
         0         0         0         0         0         0         0         0
         0         0         0         0         0         0         0         0
         0         0         0         0         0         0         0         0
         0         0         0         0         0         0         0         0
         0         0         0         0         0         0         0         0
         0         0         0         0         0         0         0         0
         0         0         0         0         0         0         0         0
         0         0         0         0         0         0         0         0
         0         0         0         0         0         0         0         0
         0         0         0         0         0         0         0         0
         0         0         0         0         0         0         0         0
         0         0         0         0         0         0         0         0
         0         0         0         0         0         0         0         0
         0         0         0         0         0         0         0         0
         0         0         0         0         0         0         0         0
         0         0         0         0         0         0         0         0
         0         0         0         0         0         0         0         0
         0         0         0         0         0         0         0         0
         0         0         0         0         0         0         0         0
         0         0         0         0         0         0         0         0
         0         0         0         0         0         0         0         0
         0         0         0         0         0         0         0         0
         0         0         0         0         0         0         0         0
         0         0         0         0         0         0         0         0
         0         0         0         0         0         0         0         0
         0         0         0         0         0         0         0         0
         0         0         0         0         0         0         0         0
         0         0         0         0         0         0         0         0
         0         0         0         0         0         0         0         0
         0         0         0         0         0         0         0         0
         0         0         0         0         0         0         0         0
         0         0         0         0         0         0         0         0
         0         0         0         0         0         0         0         0
         0         0         0         0         0         0         0         0
         0         0         0         0         0         0         0         0
         0         0         0         0         0         0         0         0
         0         0         0         0         0         0         0         0
         0         0         0         0         0         0         0         0
         0         0         0         0         0         0         0         0
         0         0         0         0         0         0         0         0
         0         0         0         0         0         0         0         0
         0         0         0         0         0         0         0         0
         0         0         0         0         0         0         0         0
         0         0         0         0         0         0         0         0
         0         0         0         0         0         0         0         0
         0         0         0         0         0         0         0         0
         0         0         0         0         0         0         0         0
         0         0         0         0         0         0         0         0
         0         0         0         0         0         0         0         0
         0         0         0         0         0         0         0         0
         0         0         0         0         0         0         0         0
         0         0         0         0         0         0         0         0
         0         0         0         0         0         0         0         0
         0         0         0         0         0         0         0         0
         0         0         0         0         0         0         0         0
         0         0         0         0         0         0         0         0
         0         0         0         0         0         0         0         0
         0         0         0         0         0         0         0         0
         0         0         0         0         0         0         0         0
         0         0         0         0         0         0         0         0
         0         0         0         0         0         0         0         0
         0         0         0         0         0         0         0         0
         0         0         0         0         0         0         0         0
         0         0         0         0         0         0         0         0
         0         0         0         0         0         0         0         0
         0         0         0         0         0         0         0         0
         0         0         0         0         0         0         0         0
         0         0         0         0         0         0         0         0
         0         0         0         0         0         0         0         0
         0         0         0         0         0         0         0         0
         0         0         0         0         0         0         0         0
         0         0         0         0         0         0         0         0
         0         0         0         0         0         0         0         0
         0         0         0         0         0         0         0         0
         0         0         0         0         0         0         0         0
         0         0         0         0         0         0         0         0
         0         0         0         0         0         0         0         0
         0         0         0         0         0         0         0         0
         0         0         0         0         0         0         0         0
         0         0         0         0         0         0         0         0
         0         0         0         0         0         0         0         0
         0         0         0         0         0         0         0         0
         0         0         0         0         0         0         0         0
         0         0         0         0         0         0         0         0
         0         0         0         0         0         0         0         0
         0         0         0         0         0         0         0         0
         0         0         0         0         0         0         0         0
         0         0         0         0         0         0         0         0
         0         0         0         0         0         0         0         0
         0         0         0         0         0         0         0         0
         0         0         0         0         0         0         0         0
         0         0         0         0         0         0         0         0
         0         0         0         0         0         0         0         0
         0         0         0         0         0         0         0         0
         0         0         0         0         0         0         0         0
         0         0         0         0         0         0         0         0
         0         0         0         0         0         0         0         0
         0         0         0         0         0         0         0         0
         0         0         0         0         0         0         0         0
         0         0         0         0         0         0         0         0
         0         0         0         0         0         0         0         0
         0         0         0         0         0         0         0         0
         0         0         0         0         0         0         0         0
         0         0         0         0         0         0         0         0
         0         0         0         0         0         0         0         0
         0         0         0         0         0         0         0         0
         0         0         0         0         0         0         0         0
         0         0         0         0         0         0         0         0
         0         0         0         0         0         0         0         0
         0         0         0         0         0         0         0         0
         0         0         0         0         0         0         0         0
         0         0         0         0         0         0         0         0
         0         0         0         0         0         0         0         0
         0         0         0         0         0         0         0         0
         0         0         0         0         0         0         0         0
         0         0         0         0         0         0         0         0
         0         0         0         0         0         0         0         0
         0         0         0         0         0         0         0         0
         0         0         0         0         0         0         0         0
         0         0         0         0         0         0         0         0
         0         0         0         0         0         0         0         0
         0         0         0         0         0         0         0         0
         0         0         0         0         0         0         0         0
         0         0         0         0         0         0         0         0
         0         0         0         0         0         0         0         0
         0         0         0         0         0         0         0         0
         0         0         0         0         0         0         0         0
         0         0         0         0         0         0         0         0
         0         0         0         0         0         0         0         0
         0         0         0         0         0         0         0         0
         0         0         0         0         0         0         0         0
         0         0         0         0         0         0         0         0
         0         0         0         0         0         0         0         0
         0         0         0         0         0         0         0         0
         0         0         0         0         0         0         0         0
         0         0         0         0         0         0         0         0
         0         0         0         0         0         0         0         0
         0         0         0         0         0         0         0         0
         0         0         0         0         0         0         0         0
         0         0         0         0         0         0         0         0
         0         0         0         0         0         0         0         0
         0         0         0         0         0         0         0         0
         0         0         0         0         0         0         0         0
         0         0         0         0         0         0         0         0
         0         0         0         0         0         0         0         0
         0         0         0         0         0         0         0         0
         0         0         0         0         0         0         0         0
         0         0         0         0         0         0         0         0
         0         0         0         0         0         0         0         0
         0         0         0         0         0         0         0         0
         0         0         0         0         0         0         0         0
         0         0         0         0         0         0         0         0
         0         0         0         0         0         0         0         0
         0         0         0         0         0         0         0         0
         0         0         0         0         0         0         0         0
         0         0         0         0         0         0         0         0
         0         0         0         0         0         0         0         0
         0         0         0         0         0         0         0         0
         0         0         0         0         0         0         0         0
         0         0         0         0         0         0         0         0
         0         0         0         0         0         0         0         0
         0         0         0         0         0         0         0         0
         0         0         0         0         0         0         0         0
         0         0         0         0         0         0         0         0
         0         0         0         0         0         0         0         0
         0         0         0         0         0         0         0         0
         0         0         0         0         0         0         0         0
         0         0         0         0         0         0         0         0
         0         0         0         0         0         0         0         0
         0         0         0         0         0         0         0         0
         0         0         0         0         0         0         0         0
         0         0         0         0         0         0         0         0
         0         0         0         0         0         0         0         0
         0         0         0         0         0         0         0         0
         0         0         0         0         0         0         0         0
         0         0         0         0         0         0         0         0
         0         0         0         0         0         0         0         0
         0         0         0         0         0         0         0         0
         0         0         0         0         0         0         0         0
         0         0         0         0         0         0         0         0
         0         0         0         0         0         0         0         0
         0         0         0         0         0         0         0         0
         0         0         0         0         0         0         0         0
         0         0         0         0         0         0         0         0
         0         0         0         0         0         0         0         0
         0         0         0         0         0         0         0         0
         0         0         0         0         0         0         0         0
         0         0         0         0         0         0         0         0
         0         0         0         0         0         0         0         0
         0         0         0         0         0         0         0         0
         0         0         0         0         0         0         0         0
         0         0         0         0         0         0         0         0
         0         0         0         0         0         0         0         0
         0         0         0         0         0         0         0         0
         0         0         0         0         0         0         0         0
         0         0         0         0         0         0         0         0
         0         0         0         0         0         0         0         0
         0         0         0         0         0         0         0         0
         0         0         0         0         0         0         0         0
         0         0         0         0         0         0         0         0
         0         0         0         0         0         0         0         0
         0         0         0         0         0         0         0         0
         0         0         0         0         0         0         0         0
         0         0         0         0         0         0         0         0
         0         0         0         0         0         0         0         0
         0         0         0         0         0         0         0         0
         0         0         0         0         0         0         0         0
         0         0         0         0         0         0         0         0
         0         0         0         0         0         0         0         0
         0         0         0         0         0         0         0         0
         0         0         0         0         0         0         0         0
         0         0         0         0         0         0         0         0
         0         0         0         0         0         0         0         0
         0         0         0         0         0         0         0         0
         0         0         0         0         0         0         0         0
         0         0         0         0         0         0         0         0
         0         0         0         0         0         0         0         0
         0         0         0         0         0         0         0         0
         0         0         0         0         0         0         0         0
         0         0         0         0         0         0         0         0
         0         0         0         0         0         0         0         0
         0         0         0         0         0         0         0         0
         0         0         0         0         0         0         0         0
         0         0         0         0         0         0         0         0
         0         0         0         0         0         0         0         0
         0         0         0         0         0         0         0         0
         0         0         0         0         0         0         0         0
         0         0         0         0         0         0         0         0
         0         0         0         0         0         0         0         0
         0         0         0         0         0         0         0         0
         0         0         0         0         0         0         0         0
         0         0         0         0         0         0         0         0
         0         0         0         0         0         0         0         0
         0         0         0         0         0         0         0         0
         0         0         0         0         0         0         0         0
         0         0         0         0         0         0         0         0
         0         0         0         0         0         0         0         0
         0         0         0         0         0         0         0         0
         0         0         0         0         0         0         0         0
         0         0         0         0         0         0         0         0
         0         0         0         0         0         0         0         0
         0         0         0         0         0         0         0         0
         0         0         0         0         0         0         0         0
         0         0         0         0         0         0         0         0
         0         0         0         0         0         0         0         0
         0         0         0         0         0         0         0         0
         0         0         0         0         0         0         0         0
         0         0         0         0         0         0         0         0
         0         0         0         0         0         0         0         0
         0         0         0         0         0         0         0         0
         0         0         0         0         0         0         0         0
         0         0         0         0         0         0         0         0
         0         0         0         0         0         0         0         0
         0         0         0         0         0         0         0         0
         0         0         0         0         0         0         0         0
         0         0         0         0         0         0         0         0
         0         0         0         0         0         0         0         0
         0         0         0         0         0         0         0         0
         0         0         0         0         0         0         0         0
         0         0         0         0         0         0         0         0
         0         0         0         0         0         0         0         0
         0         0         0         0         0         0         0         0
         0         0         0         0         0         0         0         0
         0         0         0         0         0         0         0         0
         0         0         0         0         0         0         0         0
         0         0         0         0         0         0         0         0
         0         0         0         0         0         0         0         0
         0         0         0         0         0         0         0         0
         0         0         0         0         0         0         0         0
         0         0         0         0         0         0         0         0
         0         0         0         0         0         0         0         0
         0         0         0         0         0         0         0         0
         0         0         0         0         0         0         0         0
         0         0         0         0         0         0         0         0
         0         0         0         0         0         0         0         0
         0         0         0         0         0         0         0         0
         0         0         0         0         0         0         0         0
         0         0         0         0         0         0         0         0
         0         0         0         0         0         0         0         0
         0         0         0         0         0         0         0         0
         0         0         0         0         0         0         0         0
         0         0         0         0         0         0         0         0
         0         0         0         0         0         0         0         0
         0         0         0         0         0         0         0         0
         0         0         0         0         0         0         0         0
         0         0         0         0         0         0         0         0
         0         0         0         0         0         0         0         0
         0         0         0         0         0         0         0         0
         0         0         0         0         0         0         0         0
         0         0         0         0         0         0         0         0
         0         0         0         0         0         0         0         0
         0         0         0         0         0         0         0         0
         0         0         0         0         0         0         0         0
         0         0         0         0         0         0         0         0
         0         0         0         0         0         0         0         0
         0         0         0         0         0         0         0         0
         0         0         0         0         0         0         0         0
         0         0         0         0         0         0         0         0
         0         0         0         0         0         0         0         0
         0         0         0         0         0         0         0         0
         0         0         0         0         0         0         0         0
         0         0         0         0         0         0         0         0
         0         0         0         0         0         0         0         0
         0         0         0         0         0         0         0         0
         0         0         0         0         0         0         0         0
         0         0         0         0         0         0         0         0
         0         0         0         0         0         0         0         0
         0         0         0         0         0         0         0         0
         0         0         0         0         0         0         0         0
         0         0         0         0         0         0         0         0
         0         0         0         0         0         0         0         0
         0         0         0         0         0         0         0         0
         0         0         0         0         0         0         0         0
         0         0         0         0         0         0         0         0
         0         0         0         0         0         0         0         0
         0         0         0         0         0         0         0         0
         0         0         0         0         0         0         0         0
         0         0         0         0         0         0         0         0
         0         0         0         0         0         0         0         0
         0         0         0         0         0         0         0         0
         0         0         0         0         0         0         0         0
         0         0         0         0         0         0         0         0
         0         0         0         0         0         0         0         0
         0         0         0         0         0         0         0         0
         0         0         0         0         0         0         0         0
         0         0         0         0         0         0         0         0
         0         0         0         0         0         0         0         0
         0         0         0         0         0         0         0         0
         0         0         0         0         0         0         0         0
         0         0         0         0         0         0         0         0
         0         0         0         0         0         0         0         0
         0         0         0         0         0         0         0         0
         0         0         0         0         0         0         0         0
         0         0         0         0         0         0         0         0
         0         0         0         0         0         0         0         0
         0         0         0         0         0         0         0         0
         0         0         0         0         0         0         0         0
         0         0         0         0         0         0         0         0
         0         0         0         0         0         0         0         0
         0         0         0         0         0         0         0         0
         0         0         0         0         0         0         0         0
         0         0         0         0         0         0         0         0
         0         0         0         0         0         0         0         0
         0         0         0         0         0         0         0         0
         0         0         0         0         0         0         0         0
         0         0         0         0         0         0         0         0
         0         0         0         0         0         0         0         0
         0         0         0         0         0         0         0         0
         0         0         0         0         0         0         0         0
         0         0         0         0         0         0         0         0
         0         0         0         0         0         0         0         0
         0         0         0         0         0         0         0         0
         0         0         0         0         0         0         0         0
         0         0         0         0         0         0         0         0
         0         0         0         0         0         0         0         0
         0         0         0         0         0         0         0         0
         0         0         0         0         0         0         0         0
         0         0         0         0         0         0         0         0
         0         0         0         0         0         0         0         0
         0         0         0         0         0         0         0         0
         0         0         0         0         0         0         0         0
         0         0         0         0         0         0         0         0
         0         0         0         0         0         0         0         0
         0         0         0         0         0         0         0         0
         0         0         0         0         0         0         0         0
         0         0         0         0         0         0         0         0
         0         0         0         0         0         0         0         0
         0         0         0         0         0         0         0         0
         0         0         0         0         0         0         0         0
         0         0         0         0         0         0         0         0
         0         0         0         0         0         0         0         0
         0         0         0         0         0         0         0         0
         0         0         0         0         0         0         0         0
         0         0         0         0         0         0         0         0
         0         0         0         0         0         0         0         0
         0         0         0         0         0         0         0         0
         0         0         0         0         0         0         0         0
         0         0         0         0         0         0         0         0
         0         0         0         0         0         0         0         0
         0         0         0         0         0         0         0         0
         0         0         0         0         0         0         0         0
         0         0         0         0         0         0         0         0
         0         0         0         0         0         0         0         0
         0         0         0         0         0         0         0         0
         0         0         0         0         0         0         0         0
         0         0         0         0         0         0         0         0
         0         0         0         0         0         0         0         0
         0         0         0         0         0         0         0         0
         0         0         0         0         0         0         0         0
         0         0         0         0         0         0         0         0
         0         0         0         0         0         0         0         0
         0         0         0         0         0         0         0         0
         0         0         0         0         0         0         0         0
         0         0         0         0         0         0         0         0
         0         0         0         0         0         0         0         0
         0         0         0         0         0         0         0         0
         0         0         0         0         0         0         0         0
         0         0         0         0         0         0         0         0
         0         0         0         0         0         0         0         0
         0         0         0         0         0         0         0         0
         0         0         0         0         0         0         0         0
         0         0         0         0         0         0         0         0
         0         0         0         0         0         0         0         0
         0         0         0         0         0         0         0         0
         0         0         0         0         0         0         0         0
         0         0         0         0         0         0         0         0
         0         0         0         0         0         0         0         0
         0         0         0         0         0         0         0         0
         0         0         0         0         0         0         0         0
         0         0         0         0         0         0         0         0
         0         0         0         0         0         0         0         0
         0         0         0         0         0         0         0         0
         0         0         0         0         0         0         0         0
         0         0         0         0         0         0         0         0
         0         0         0         0         0         0         0         0
         0         0         0         0         0         0         0         0
         0         0         0         0         0         0         0         0
         0         0         0         0         0         0         0         0
         0         0         0         0         0         0         0         0
         0         0         0         0         0         0         0         0
         0         0         0         0         0         0         0         0
         0         0         0         0         0         0         0         0
         0         0         0         0         0         0         0         0
         0         0         0         0         0         0         0         0
         0         0         0         0         0         0         0         0
         0         0         0         0         0         0         0         0
         0         0         0         0         0         0         0         0
         0         0         0         0         0         0         0         0
         0         0         0         0         0         0         0         0
         0         0         0         0         0         0         0         0
         0         0         0         0         0         0         0         0
         0         0         0         0         0         0         0         0
         0         0         0         0         0         0         0         0
         0         0         0         0         0         0         0         0
         0         0         0         0         0         0         0         0
         0         0         0         0         0         0         0         0
         0         0         0         0         0         0         0         0
         0         0         0         0         0         0         0         0
         0         0         0         0         0         0         0         0
         0         0         0         0         0         0         0         0
         0         0         0         0         0         0         0         0
         0         0         0         0         0         0         0         0
         0         0         0         0         0         0         0         0
         0         0         0         0         0         0         0         0
         0         0         0         0         0         0         0         0
         0         0         0         0         0         0         0         0
         0         0         0         0         0         0         0         0
         0         0         0         0         0         0         0         0
         0         0         0         0         0         0         0         0
         0         0         0         0         0         0         0         0
         0         0         0         0         0         0         0         0
         0         0         0         0         0         0         0         0
         0         0         0         0         0         0         0         0
         0         0         0         0         0         0         0         0
         0         0         0         0         0         0         0         0
         0         0         0         0         0         0         0         0
         0         0         0         0         0         0         0         0
         0         0         0         0         0         0         0         0
         0         0         0         0         0         0         0         0
         0         0         0         0         0         0         0         0
         0         0         0         0         0         0         0         0
         0         0         0         0         0         0         0         0
         0         0         0         0         0         0         0         0
         0         0         0         0         0         0         0         0
         0         0         0         0         0         0         0         0
         0         0         0         0         0         0         0         0
         0         0         0         0         0         0         0         0
         0         0         0         0         0         0         0         0
         0         0         0         0         0         0         0         0
         0         0         0         0         0         0         0         0
         0         0         0         0         0         0         0         0
         0         0         0         0         0         0         0         0
         0         0         0         0         0         0         0         0
         0         0         0         0         0         0         0         0
         0         0         0         0         0         0         0         0
         0         0         0         0         0         0         0         0
         0         0         0         0         0         0         0         0
         0         0         0         0         0         0         0         0
         0         0         0         0         0         0         0         0
         0         0         0         0         0         0         0         0
         0         0         0         0         0         0         0         0
         0         0         0         0         0         0         0         0
         0         0         0         0         0         0         0         0
         0         0         0         0         0         0         0         0
         0         0         0         0         0         0         0         0
         0         0         0         0         0         0         0         0
         0         0         0         0         0         0         0         0
         0         0         0         0         0         0         0         0
         0         0         0         0         0         0         0         0
         0         0         0         0         0         0         0         0
         0         0         0         0         0         0         0         0
         0         0         0         0         0         0         0         0
         0         0         0         0         0         0         0         0
         0         0         0         0         0         0         0         0
         0         0         0         0         0         0         0         0
         0         0         0         0         0         0         0         0
         0         0         0         0         0         0         0         0
         0         0         0         0         0         0         0         0
         0         0         0         0         0         0         0         0
         0         0         0         0         0         0         0         0
         0         0         0         0         0         0         0         0
         0         0         0         0         0         0         0         0
         0         0         0         0         0         0         0         0
         0         0         0         0         0         0         0         0
         0         0         0         0         0         0         0         0
         0         0         0         0         0         0         0         0
         0         0         0         0         0         0         0         0
         0         0         0         0         0         0         0         0
         0         0         0         0         0         0         0         0
         0         0         0         0         0         0         0         0
         0         0         0         0         0         0         0         0
         0         0         0         0         0         0         0         0
         0         0         0         0         0         0         0         0
         0         0         0         0         0         0         0         0
         0         0         0         0         0         0         0         0
         0         0         0         0         0         0         0         0
         0         0         0         0         0         0         0         0
         0         0         0         0         0         0         0         0
         0         0         0         0         0         0         0         0
         0         0         0         0         0         0         0         0
         0         0         0         0         0         0         0         0
         0         0         0         0         0         0         0         0
         0         0         0         0         0         0         0         0
         0         0         0         0         0         0         0         0
         0         0         0         0         0         0         0         0
         0         0         0         0         0         0         0         0
         0         0         0         0         0         0         0         0
         0         0         0         0         0         0         0         0
         0         0         0         0         0         0         0         0
         0         0         0         0         0         0         0         0
         0         0         0         0         0         0         0         0
         0         0         0         0         0         0         0         0
         0         0         0         0         0         0         0         0
         0         0         0         0         0         0         0         0
         0         0         0         0         0         0         0         0
         0         0         0         0         0         0         0         0
         0         0         0         0         0         0         0         0
         0         0         0         0         0         0         0         0
         0         0         0         0         0         0         0         0
         0         0         0         0         0         0         0         0
         0         0         0         0         0         0         0         0
         0         0         0         0         0         0         0         0
         0         0         0         0         0         0         0         0
         0         0         0         0         0         0         0         0
         0         0         0         0         0         0         0         0
         0         0         0         0         0         0         0         0
         0         0         0         0         0         0         0         0
         0         0         0         0         0         0         0         0
         0         0         0         0         0         0         0         0
         0         0         0         0         0         0         0         0
         0         0         0         0         0         0         0         0
         0         0         0         0         0         0         0         0
         0         0         0         0         0         0         0         0
         0         0         0         0         0         0         0         0
         0         0         0         0         0         0         0         0
         0         0         0         0         0         0         0         0
         0         0         0         0         0         0         0         0
         0         0         0         0         0         0         0         0
         0         0         0         0         0         0         0         0
         0         0         0         0         0         0         0         0
         0         0         0         0         0         0         0         0
         0         0         0         0         0         0         0         0
         0         0         0         0         0         0         0         0
         0         0         0         0         0         0         0         0
         0         0         0         0         0         0         0         0
         0         0         0         0         0         0         0         0
         0         0         0         0         0         0         0         0
         0         0         0         0         0         0         0         0
         0         0         0         0         0         0         0         0
         0         0         0         0         0         0         0         0
         0         0         0         0         0         0         0         0
         0         0         0         0         0         0         0         0
         0         0         0         0         0         0         0         0
         0         0         0         0         0         0         0         0
         0         0         0         0         0         0         0         0
         0         0         0         0         0         0         0         0
         0         0         0         0         0         0         0         0
         0         0         0         0         0         0         0         0
         0         0         0         0         0         0         0         0
         0         0         0         0         0         0         0         0
         0         0         0         0         0         0         0         0
         0         0         0         0         0         0         0         0
         0         0         0         0         0         0         0         0
         0         0         0         0         0         0         0         0
         0         0         0         0         0         0         0         0
         0         0         0         0         0         0         0         0
         0         0         0         0         0         0         0         0
         0         0         0         0         0         0         0         0
         0         0         0         0         0         0         0         0
         0         0         0         0         0         0         0         0
         0         0         0         0         0         0         0         0
         0         0         0         0         0         0         0         0
         0         0         0         0         0         0         0         0
         0         0         0         0         0         0         0         0
         0         0         0         0         0         0         0         0
         0         0         0         0         0         0         0         0
         0         0         0         0         0         0         0         0
         0         0         0         0         0         0         0         0
         0         0         0         0         0         0         0         0
         0         0         0         0         0         0         0         0
         0         0         0         0         0         0         0         0
         0         0         0         0         0         0         0         0
         0         0         0         0         0         0         0         0
         0         0         0         0         0         0         0         0
         0         0         0         0         0         0         0         0
         0         0         0         0         0         0         0         0
         0         0         0         0         0         0         0         0
         0         0         0         0         0         0         0         0
         0         0         0         0         0         0         0         0
         0         0         0         0         0         0         0         0
         0         0         0         0         0         0         0         0
         0         0         0         0         0         0         0         0
         0         0         0         0         0         0         0         0
         0         0         0         0         0         0         0         0
         0         0         0         0         0         0         0         0
         0         0         0         0         0         0         0         0
         0         0         0         0         0         0         0         0
         0         0         0         0         0         0         0         0
         0         0         0         0         0         0         0         0
         0         0         0         0         0         0         0         0
         0         0         0         0         0         0         0         0
         0         0         0         0         0         0         0         0
         0         0         0         0         0         0         0         0
         0         0         0         0         0         0         0         0
         0         0         0         0         0         0         0         0
         0         0         0         0         0         0         0         0
         0         0         0         0         0         0         0         0
         0         0         0         0         0         0         0         0
         0         0         0         0         0         0         0         0
         0         0         0         0         0         0         0         0
         0         0         0         0         0         0         0         0
         0         0         0         0         0         0         0         0
         0         0         0         0         0         0         0         0
         0         0         0         0         0         0         0         0
         0         0         0         0         0         0         0         0
         0         0         0         0         0         0         0         0
         0         0         0         0         0         0         0         0
         0         0         0         0         0         0         0         0
         0         0         0         0         0         0         0         0
         0         0         0         0         0         0         0         0
         0         0         0         0         0         0         0         0
         0         0         0         0         0         0         0         0
         0         0         0         0         0         0         0         0
         0         0         0         0         0         0         0         0
         0         0         0         0         0         0         0         0
         0         0         0         0         0         0         0         0
         0         0         0         0         0         0         0         0
         0         0         0         0         0         0         0         0
         0         0         0         0         0         0         0         0
         0         0         0         0         0         0         0         0
         0         0         0         0         0         0         0         0
         0         0         0         0         0         0         0         0
         0         0         0         0         0         0         0         0
         0         0         0         0         0         0         0         0
         0         0         0         0         0         0         0         0
         0         0         0         0         0         0         0         0
         0         0         0         0         0         0         0         0
         0         0         0         0         0         0         0         0
         0         0         0         0         0         0         0         0
         0         0         0         0         0         0         0         0
         0         0         0         0         0         0         0         0
         0         0         0         0         0         0         0         0
         0         0         0         0         0         0         0         0
         0         0         0         0         0         0         0         0
         0         0         0         0         0         0         0         0
         0         0         0         0         0         0         0         0
         0         0         0         0         0         0         0         0
         0         0         0         0         0         0         0         0
         0         0         0         0         0         0         0         0
         0         0         0         0         0         0         0         0
         0         0         0         0         0         0         0         0
         0         0         0         0         0         0         0         0
         0         0         0         0         0         0         0         0
         0         0         0         0         0         0         0         0
         0         0         0         0         0         0         0         0
         0         0         0         0         0         0         0         0
         0         0         0         0         0         0         0         0
         0         0         0         0         0         0         0         0
         0         0         0         0         0         0         0         0
         0         0         0         0         0         0         0         0
         0         0         0         0         0         0         0         0
         0         0         0         0         0         0         0         0
         0         0         0         0         0         0         0         0
         0         0         0         0         0         0         0         0
         0         0         0         0         0         0         0         0
         0         0         0         0         0         0         0         0
         0         0         0         0         0         0         0         0
         0         0         0         0         0         0         0         0
         0         0         0         0         0         0         0         0
         0         0         0         0         0         0         0         0
         0         0         0         0         0         0         0         0
         0         0         0         0         0         0         0         0
         0         0         0         0         0         0         0         0
         0         0         0         0         0         0         0         0
         0         0         0         0         0         0         0         0
         0         0         0         0         0         0         0         0
         0         0         0         0         0         0         0         0
         0         0         0         0         0         0         0         0
         0         0         0         0         0         0         0         0
         0         0         0         0         0         0         0         0
         0         0         0         0         0         0         0         0
         0         0         0         0         0         0         0         0
         0         0         0         0         0         0         0         0
         0         0         0         0         0         0         0         0
         0         0         0         0         0         0         0         0
         0         0         0         0         0         0         0         0
         0         0         0         0         0         0         0         0
         0         0         0         0         0         0         0         0
         0         0         0         0         0         0         0         0
         0         0         0         0         0         0         0         0
         0         0         0         0         0         0         0         0
         0         0         0         0         0         0         0         0
         0         0         0         0         0         0         0         0
         0         0         0         0         0         0         0         0
         0         0         0         0         0         0         0         0
         0         0         0         0         0         0         0         0
         0         0         0         0         0         0         0         0
         0         0         0         0         0         0         0         0
         0         0         0         0         0         0         0         0
         0         0         0         0         0         0         0         0
         0         0         0         0         0         0         0         0
         0         0         0         0         0         0         0         0
         0         0         0         0         0         0         0         0
         0         0         0         0         0         0         0         0
         0         0         0         0         0         0         0         0
         0         0         0         0         0         0         0         0
         0         0         0         0         0         0         0         0
         0         0         0         0         0         0         0         0
         0         0         0         0         0         0         0         0
         0         0         0         0         0         0         0         0
         0         0         0         0         0         0         0         0
         0         0         0         0         0         0         0         0
         0         0         0         0         0         0         0         0
         0         0         0         0         0         0         0         0
         0         0         0         0         0         0         0         0
         0         0         0         0         0         0         0         0
         0         0         0         0         0         0         0         0
         0         0         0         0         0         0         0         0
         0         0         0         0         0         0         0         0
         0         0         0         0         0         0         0         0
         0         0         0         0         0         0         0         0
         0         0         0         0         0         0         0         0
         0         0         0         0         0         0         0         0
         0         0         0         0         0         0         0         0
         0         0         0         0         0         0         0         0
         0         0         0         0         0         0         0         0
         0         0         0         0         0         0         0         0
         0         0         0         0         0         0         0         0
         0         0         0         0         0         0         0         0
         0         0         0         0         0         0         0         0
         0         0         0         0         0         0         0         0
         0         0         0         0         0         0         0         0
         0         0         0         0         0         0         0         0
         0         0         0         0         0         0         0         0
         0         0         0         0         0         0         0         0
         0         0         0         0         0         0         0         0
         0         0         0         0         0         0         0         0
         0         0         0         0         0         0         0         0
         0         0         0         0         0         0         0         0
         0         0         0         0         0         0         0         0
         0         0         0         0         0         0         0         0
         0         0         0         0         0         0         0         0
         0         0         0         0         0         0         0         0
         0         0         0         0         0         0         0         0
         0         0         0         0         0         0         0         0
         0         0         0         0         0         0         0         0
         0         0         0         0         0         0         0         0
         0         0         0         0         0         0         0         0
         0         0         0         0         0         0         0         0
         0         0         0         0         0         0         0         0
         0         0         0         0         0         0         0         0
         0         0         0         0         0         0         0         0
         0         0         0         0         0         0         0         0
         0         0         0         0         0         0         0         0
         0         0         0         0         0         0         0         0
         0         0         0         0         0         0         0         0
         0         0         0         0         0         0         0         0
         0         0         0         0         0         0         0         0
         0         0         0         0         0         0         0         0
         0         0         0         0         0         0         0         0
         0         0         0         0         0         0         0         0
         0         0         0         0         0         0         0         0
         0         0         0         0         0         0         0         0
         0         0         0         0         0         0         0         0
         0         0         0         0         0         0         0         0
         0         0         0         0         0         0         0         0
         0         0         0         0         0         0         0         0
         0         0         0         0         0         0         0         0
         0         0         0         0         0         0         0         0
         0         0         0         0         0         0         0         0
         0         0         0         0         0         0         0         0
         0         0         0         0         0         0         0         0
         0         0         0         0         0         0         0         0
         0         0         0         0         0         0         0         0
         0         0         0         0         0         0         0         0
         0         0         0         0         0         0         0         0
         0         0         0         0         0         0         0         0
         0         0         0         0         0         0         0         0
         0         0         0         0         0         0         0         0
         0         0         0         0         0         0         0         0
         0         0         0         0         0         0         0         0
         0         0         0         0         0         0         0         0
         0         0         0         0         0         0         0         0
         0         0         0         0         0         0         0         0
         0         0         0         0         0         0         0         0
         0         0         0         0         0         0         0         0
         0         0         0         0         0         0         0         0
         0         0         0         0         0         0         0         0
         0         0         0         0         0         0         0         0
         0         0         0         0         0         0         0         0
         0         0         0         0         0         0         0         0
         0         0         0         0         0         0         0         0
         0         0         0         0         0         0         0         0
         0         0         0         0         0         0         0         0
         0         0         0         0         0         0         0         0
         0         0         0         0         0         0         0         0
         0         0         0         0         0         0         0         0
         0         0         0         0         0         0         0         0
         0         0         0         0         0         0         0         0
         0         0         0         0         0         0         0         0
         0         0         0         0         0         0         0         0
         0         0         0         0         0         0         0         0
         0         0         0         0         0         0         0         0
         0         0         0         0         0         0         0         0
         0         0         0         0         0         0         0         0
         0         0         0         0         0         0         0         0
         0         0         0         0         0         0         0         0
         0         0         0         0         0         0         0         0
         0         0         0         0         0         0         0         0
         0         0         0         0         0         0         0         0
         0         0         0         0         0         0         0         0
         0         0         0         0         0         0         0         0
         0         0         0         0         0         0         0         0
         0         0         0         0         0         0         0         0
         0         0         0         0         0         0         0         0
         0         0         0         0         0         0         0         0
         0         0         0         0         0         0         0         0
         0         0         0         0         0         0         0         0
         0         0         0         0         0         0         0         0
         0         0         0         0         0         0         0         0
         0         0         0         0         0         0         0         0
         0         0         0         0         0         0         0         0
         0         0         0         0         0         0         0         0
         0         0         0         0         0         0         0         0
         0         0         0         0         0         0         0         0
         0         0         0         0         0         0         0         0
         0         0         0         0         0         0         0         0
         0         0         0         0         0         0         0         0
         0         0         0         0         0         0         0         0
         0         0         0         0         0         0         0         0
         0         0         0         0         0         0         0         0
         0         0         0         0         0         0         0         0
         0         0         0         0         0         0         0         0
         0         0         0         0         0         0         0         0
         0         0         0         0         0         0         0         0
         0         0         0         0         0         0         0         0
         0         0         0         0         0         0         0         0
         0         0         0         0         0         0         0         0
         0         0         0         0         0         0         0         0
         0         0         0         0         0         0         0         0
         0         0         0         0         0         0         0         0
         0         0         0         0         0         0         0         0
         0         0         0         0         0         0         0         0
         0         0         0         0         0         0         0         0
         0         0         0         0         0         0         0         0
         0         0         0         0         0         0         0         0
         0         0         0         0         0         0         0         0
         0         0         0         0         0         0         0         0
         0         0         0         0         0         0         0         0
         0         0         0         0         0         0         0         0
         0         0         0         0         0         0         0         0
         0         0         0         0         0         0         0         0
         0         0         0         0         0         0         0         0
         0         0         0         0         0         0         0         0
         0         0         0         0         0         0         0         0
         0         0         0         0         0         0         0         0
         0         0         0         0         0         0         0         0
         0         0         0         0         0         0         0         0
         0         0         0         0         0         0         0         0
         0         0         0         0         0         0         0         0
         0         0         0         0         0         0         0         0
         0         0         0         0         0         0         0         0
         0         0         0         0         0         0         0         0
         0         0         0         0         0         0         0         0
         0         0         0         0         0         0         0         0
         0         0         0         0         0         0         0         0
         0         0         0         0         0         0         0         0
         0         0         0         0         0         0         0         0
         0         0         0         0         0         0         0         0
         0         0         0         0         0         0         0         0
         0         0         0         0         0         0         0         0
         0         0         0         0         0         0         0         0
         0         0         0         0         0         0         0         0
         0         0         0         0         0         0         0         0
         0         0         0         0         0         0         0         0
         0         0         0         0         0         0         0         0
         0         0         0         0         0         0         0         0
         0         0         0         0         0         0         0         0
         0         0         0         0         0         0         0         0
         0         0         0         0         0         0         0         0
         0         0         0         0         0         0         0         0
         0         0         0         0         0         0         0         0
         0         0         0         0         0         0         0         0
         0         0         0         0         0         0         0         0
         0         0         0         0         0         0         0         0
         0         0         0         0         0         0         0         0
         0         0         0         0         0         0         0         0
         0         0         0         0         0         0         0         0
         0         0         0         0         0         0         0         0
         0         0         0         0         0         0         0         0
         0         0         0         0         0         0         0         0
         0         0         0         0         0         0         0         0
         0         0         0         0         0         0         0         0
         0         0         0         0         0         0         0         0
         0         0         0         0         0         0         0         0
         0         0         0         0         0         0         0         0
         0         0         0         0         0         0         0         0
         0         0         0         0         0         0         0         0
         0         0         0         0         0         0         0         0
         0         0         0         0         0         0         0         0
         0         0         0         0         0         0         0         0
         0         0         0         0         0         0         0         0
         0         0         0         0         0         0         0         0
         0         0         0         0         0         0         0         0
         0         0         0         0         0         0         0         0
         0         0         0         0         0         0         0         0
         0         0         0         0         0         0         0         0
         0         0         0         0         0         0         0         0
         0         0         0         0         0         0         0         0
         0         0         0         0         0         0         0         0
         0         0         0         0         0         0         0         0
         0         0         0         0         0         0         0         0
         0         0         0         0         0         0         0         0
         0         0         0         0         0         0         0         0
         0         0         0         0         0         0         0         0
         0         0         0         0         0         0         0         0
         0         0         0         0         0         0         0         0
         0         0         0         0         0         0         0         0
         0         0         0         0         0         0         0         0
         0         0         0         0         0         0         0         0
         0         0         0         0         0         0         0         0
         0         0         0         0         0         0         0         0
         0         0         0         0         0         0         0         0
         0         0         0         0         0         0         0         0
         0         0         0         0         0         0         0         0
         0         0         0         0         0         0         0         0
         0         0         0         0         0         0         0         0
         0         0         0         0         0         0         0         0
         0         0         0         0         0         0         0         0
         0         0         0         0         0         0         0         0
         0         0         0         0         0         0         0         0
         0         0         0         0         0         0         0         0
         0         0         0         0         0         0         0         0
         0         0         0         0         0         0         0         0
         0         0         0         0         0         0         0         0
         0         0         0         0         0         0         0         0
         0         0         0         0         0         0         0         0
         0         0         0         0         0         0         0         0
         0         0         0         0         0         0         0         0
         0         0         0         0         0         0         0         0
         0         0         0         0         0         0         0         0
         0         0         0         0         0         0         0         0
         0         0         0         0         0         0         0         0
         0         0         0         0         0         0         0         0
         0         0         0         0         0         0         0         0
         0         0         0         0         0         0         0         0
         0         0         0         0         0         0         0         0
         0         0         0         0         0         0         0         0
         0         0         0         0         0         0         0         0
         0         0         0         0         0         0         0         0
         0         0         0         0         0         0         0         0
         0         0         0         0         0         0         0         0
         0         0         0         0         0         0         0         0
         0         0         0         0         0         0         0         0
         0         0         0         0         0         0         0         0
         0         0         0         0         0         0         0         0
         0         0         0         0         0         0         0         0
         0         0         0         0         0         0         0         0
         0         0         0         0         0         0         0         0
         0         0         0         0         0         0         0         0
         0         0         0         0         0         0         0         0
         0         0         0         0         0         0         0         0
         0         0         0         0         0         0         0         0
         0         0         0         0         0         0         0         0
         0         0         0         0         0         0         0         0
         0         0         0         0         0         0         0         0
         0         0         0         0         0         0         0         0
         0         0         0         0         0         0         0         0
         0         0         0         0         0         0         0         0
         0         0         0         0         0         0         0         0
         0         0         0         0         0         0         0         0
         0         0         0         0         0         0         0         0
         0         0         0         0         0         0         0         0
         0         0         0         0         0         0         0         0
         0         0         0         0         0         0         0         0
         0         0         0         0         0         0         0         0
         0         0         0         0         0         0         0         0
         0         0         0         0         0         0         0         0
         0         0         0         0         0         0         0         0
         0         0         0         0         0         0         0         0
         0         0         0         0         0         0         0         0
         0         0         0         0         0         0         0         0
         0         0         0         0         0         0         0         0
         0         0         0         0         0         0         0         0
         0         0         0         0         0         0         0         0
         0         0         0         0         0         0         0         0
         0         0         0         0         0         0         0         0
         0         0         0         0         0         0         0         0
         0         0         0         0         0         0         0         0
         0         0         0         0         0         0         0         0
         0         0         0         0         0         0         0         0
         0         0         0         0         0         0         0         0
         0         0         0         0         0         0         0         0
         0         0         0         0         0         0         0         0
         0         0         0         0         0         0         0         0
         0         0         0         0         0         0         0         0
         0         0         0         0         0         0         0         0
         0         0         0         0         0         0         0         0
         0         0         0         0         0         0         0         0
         0         0         0         0         0         0         0         0
         0         0         0         0         0         0         0         0
         0         0         0         0         0         0         0         0
         0         0         0         0         0         0         0         0
         0         0         0         0         0         0         0         0
         0         0         0         0         0         0         0         0
         0         0         0         0         0         0         0         0
         0         0         0         0         0         0         0         0
         0         0         0         0         0         0         0         0
         0         0         0         0         0         0         0         0
         0         0         0         0         0         0         0         0
         0         0         0         0         0         0         0         0
         0         0         0         0         0         0         0         0
         0         0         0         0         0         0         0         0
         0         0         0         0         0         0         0         0
         0         0         0         0         0         0         0         0
         0         0         0         0         0         0         0         0
         0         0         0         0         0         0         0         0
         0         0         0         0         0         0         0         0
         0         0         0         0         0         0         0         0
         0         0         0         0         0         0         0         0
         0         0         0         0         0         0         0         0
         0         0         0         0         0         0         0         0
         0         0         0         0         0         0         0         0
         0         0         0         0         0         0         0         0
         0         0         0         0         0         0         0         0
         0         0         0         0         0         0         0         0
         0         0         0         0         0         0         0         0
         0         0         0         0         0         0         0         0
         0         0         0         0         0         0         0         0
         0         0         0         0         0         0         0         0
         0         0         0         0         0         0         0         0
         0         0         0         0         0         0         0         0
         0         0         0         0         0         0         0         0
         0         0         0         0         0         0         0         0
         0         0         0         0         0         0         0         0
         0         0         0         0         0         0         0         0
         0         0         0         0         0         0         0         0
         0         0         0         0         0         0         0         0
         0         0         0         0         0         0         0         0
         0         0         0         0         0         0         0         0
         0         0         0         0         0         0         0         0
         0         0         0         0         0         0         0         0
         0         0         0         0         0         0         0         0
         0         0         0         0         0         0         0         0
         0         0         0         0         0         0         0         0
         0         0         0         0         0         0         0         0
         0         0         0         0         0         0         0         0
         0         0         0         0         0         0         0         0
         0         0         0         0         0         0         0         0
         0         0         0         0         0         0         0         0
         0         0         0         0         0         0         0         0
         0         0         0         0         0         0         0         0
         0         0         0         0         0         0         0         0
         0         0         0         0         0         0         0         0
         0         0         0         0         0         0         0         0
         0         0         0         0         0         0         0         0
         0         0         0         0         0         0         0         0
         0         0         0         0         0         0         0         0
         0         0         0         0         0         0         0         0
         0         0         0         0         0         0         0         0
         0         0         0         0         0         0         0         0
         0         0         0         0         0         0         0         0
         0         0         0         0         0         0         0         0
         0         0         0         0         0         0         0         0
         0         0         0         0         0         0         0         0
         0         0         0         0         0         0         0         0
         0         0         0         0         0         0         0         0
         0         0         0         0         0         0         0         0
         0         0         0         0         0         0         0         0
         0         0         0         0         0         0         0         0
         0         0         0         0         0         0         0         0
         0         0         0         0         0         0         0         0
         0         0         0         0         0         0         0         0
         0         0         0         0         0         0         0         0
         0         0         0         0         0         0         0         0
         0         0         0         0         0         0         0         0
         0         0         0         0         0         0         0         0
         0         0         0         0         0         0         0         0
         0         0         0         0         0         0         0         0
         0         0         0         0         0         0         0         0
         0         0         0         0         0         0         0         0
         0         0         0         0         0         0         0         0
         0         0         0         0         0         0         0         0
         0         0         0         0         0         0         0         0
         0         0         0         0         0         0         0         0
         0         0         0         0         0         0         0         0
         0         0         0         0         0         0         0         0
         0         0         0         0         0         0         0         0
         0         0         0         0         0         0         0         0
         0         0         0         0         0         0         0         0
         0         0         0         0         0         0         0         0
         0         0         0         0         0         0         0         0
         0         0         0         0         0         0         0         0
         0         0         0         0         0         0         0         0
         0         0         0         0         0         0         0         0
         0         0         0         0         0         0         0         0
         0         0         0         0         0         0         0         0
         0         0         0         0         0         0         0         0
         0         0         0         0         0         0         0         0
         0         0         0         0         0         0         0         0
         0         0         0         0         0         0         0         0
         0         0         0         0         0         0         0         0
         0         0         0         0         0         0         0         0
         0         0         0         0         0         0         0         0
         0         0         0         0         0         0         0         0
         0         0         0         0         0         0         0         0
         0         0         0         0         0         0         0         0
         0         0         0         0         0         0         0         0
         0         0         0         0         0         0         0         0
         0         0         0         0         0         0         0         0
         0         0         0         0         0         0         0         0
         0         0         0         0         0         0         0         0
         0         0         0         0         0         0         0         0
         0         0         0         0         0         0         0         0
         0         0         0         0         0         0         0         0
         0         0         0         0         0         0         0         0
         0         0         0         0         0         0         0         0
         0         0         0         0         0         0         0         0
         0         0         0         0         0         0         0         0
         0         0         0         0         0         0         0         0
         0         0         0         0         0         0         0         0
         0         0         0         0         0         0         0         0
         0         0         0         0         0         0         0         0
         0         0         0         0         0         0         0         0
         0         0         0         0         0         0         0         0
         0         0         0         0         0         0         0         0
         0         0         0         0         0         0         0         0
         0         0         0         0         0         0         0         0
         0         0         0         0         0         0         0         0
         0         0         0         0         0         0         0         0
         0         0         0         0         0         0         0         0
         0         0         0         0         0         0         0         0
         0         0         0         0         0         0         0         0
         0         0         0         0         0         0         0         0
         0         0         0         0         0         0         0         0
         0         0         0         0         0         0         0         0
         0         0         0         0         0         0         0         0
         0         0         0         0         0         0         0         0
         0         0         0         0         0         0         0         0
         0         0         0         0         0         0         0         0
         0         0         0         0         0         0         0         0
         0         0         0         0         0         0         0         0
         0         0         0         0         0         0         0         0
         0         0         0         0         0         0         0         0
         0         0         0         0         0         0         0         0
         0         0         0         0         0         0         0         0
         0         0         0         0         0         0         0         0
         0         0         0         0         0         0         0         0
         0         0         0         0         0         0         0         0
         0         0         0         0         0         0         0         0
         0         0         0         0         0         0         0         0
         0         0         0         0         0         0         0         0
         0         0         0         0         0         0         0         0
         0         0         0         0         0         0         0         0
         0         0         0         0         0         0         0         0
         0         0         0         0         0         0         0         0
         0         0         0         0         0         0         0         0
         0         0         0         0         0         0         0         0
         0         0         0         0         0         0         0         0
         0         0         0         0         0         0         0         0
         0         0         0         0         0         0         0         0
         0         0         0         0         0         0         0         0
         0         0         0         0         0         0         0         0
         0         0         0         0         0         0         0         0
         0         0         0         0

      8620         0 !NGRP NST2
         0         2         0        16         2         0        27         1         0
        35         1         0        44         1         0        47         1         0
        50         1         0        53         1         0        56         1         0
        59         1         0        62         1         0        64         1         0
        66         1         0        69         1         0        72         1         0
        75         1         0        78         1         0        81         1         0
        84         1         0        87         1         0        91         1         0
        94         1         0        97         1         0       100         1         0
       103         1         0       106         1         0       109         1         0
       111         1         0       113         1         0       116         1         0
       119         1         0       122         1         0       125         1         0
       128         1         0       131         1         0       134         1         0
       138         2         0       154         2         0       165         1         0
       173         1         0       182         1         0       185         1         0
       188         1         0       191         1         0       194         1         0
       197         1         0       200         1         0       202         1         0
       204         1         0       207         1         0       210         1         0
       213         1         0       216         1         0       219         1         0
       222         1         0       225         1         0       229         1         0
       232         1         0       235         1         0       238         1         0
       241         1         0       244         1         0       247         1         0
       249         1         0       251         1         0       254         1         0
       257         1         0       260         1         0       263         1         0
       266         1         0       269         1         0       272         1         0
       276         2         0       292         2         0       303         1         0
       311         1         0       320         1         0       323         1         0
       326         1         0       329         1         0       332         1         0
       335         1         0       338         1         0       340         1         0
       342         1         0       345         1         0       348         1         0
       351         1         0       354         1         0       357         1         0
       360         1         0       363         1         0       367         1         0
       370         1         0       373         1         0       376         1         0
       379         1         0       382         1         0       385         1         0
       387         1         0       389         1         0       392         1         0
       395         1         0       398         1         0       401         1         0
       404         1         0       407         1         0       410         1         0
       414         2         0       430         2         0       441         1         0
       449         1         0       458         1         0       461         1         0
       464         1         0       467         1         0       470         1         0
       473         1         0       476         1         0       478         1         0
       480         1         0       483         1         0       486         1         0
       489         1         0       492         1         0       495         1         0
       498         1         0       501         1         0       505         1         0
       508         1         0       511         1         0       514         1         0
       517         1         0       520         1         0       523         1         0
       525         1         0       527         1         0       530         1         0
       533         1         0       536         1         0       539         1         0
       542         1         0       545         1         0       548         1         0
       552         2         0       568         2         0       579         1         0
       587         1         0       596         1         0       599         1         0
       602         1         0       605         1         0       608         1         0
       611         1         0       614         1         0       616         1         0
       618         1         0       621         1         0       624         1         0
       627         1         0       630         1         0       633         1         0
       636         1         0       639         1         0       643         1         0
       646         1         0       649         1         0       652         1         0
       655         1         0       658         1         0       661         1         0
       663         1         0       665         1         0       668         1         0
       671         1         0       674         1         0       677         1         0
       680         1         0       683         1         0       686         1         0
       690         2         0       706         2         0       717         1         0
       725         1         0       734         1         0       737         1         0
       740         1         0       743         1         0       746         1         0
       749         1         0       752         1         0       754         1         0
       756         1         0       759         1         0       762         1         0
       765         1         0       768         1         0       771         1         0
       774         1         0       777         1         0       781         1         0
       784         1         0       787         1         0       790         1         0
       793         1         0       796         1         0       799         1         0
       801         1         0       803         1         0       806         1         0
       809         1         0       812         1         0       815         1         0
       818         1         0       821         1         0       824         1         0
       828         2         0       844         2         0       855         1         0
       863         1         0       872         1         0       875         1         0
       878         1         0       881         1         0       884         1         0
       887         1         0       890         1         0       892         1         0
       894         1         0       897         1         0       900         1         0
       903         1         0       906         1         0       909         1         0
       912         1         0       915         1         0       919         1         0
       922         1         0       925         1         0       928         1         0
       931         1         0       934         1         0       937         1         0
       939         1         0       941         1         0       944         1         0
       947         1         0       950         1         0       953         1         0
       956         1         0       959         1         0       962         1         0
       966         2         0       982         2         0       993         1         0
      1001         1         0      1010         1         0      1013         1         0
      1016         1         0      1019         1         0      1022         1         0
      1025         1         0      1028         1         0      1030         1         0
      1032         1         0      1035         1         0      1038         1         0
      1041         1         0      1044         1         0      1047         1         0
      1050         1         0      1053         1         0      1057         1         0
      1060         1         0      1063         1         0      1066         1         0
      1069         1         0      1072         1         0      1075         1         0
      1077         1         0      1079         1         0      1082         1         0
      1085         1         0      1088         1         0      1091         1         0
      1094         1         0      1097         1         0      1100         1         0
      1104         2         0      1120         2         0      1131         1         0
      1139         1         0      1148         1         0      1151         1         0
      1154         1         0      1157         1         0      1160         1         0
      1163         1         0      1166         1         0      1168         1         0
      1170         1         0      1173         1         0      1176         1         0
      1179         1         0      1182         1         0      1185         1         0
      1188         1         0      1191         1         0      1195         1         0
      1198         1         0      1201         1         0      1204         1         0
      1207         1         0      1210         1         0      1213         1         0
      1215         1         0      1217         1         0      1220         1         0
      1223         1         0      1226         1         0      1229         1         0
      1232         1         0      1235         1         0      1238         1         0
      1242         2         0      1258         2         0      1269         1         0
      1277         1         0      1286         1         0      1289         1         0
      1292         1         0      1295         1         0      1298         1         0
      1301         1         0      1304         1         0      1306         1         0
      1308         1         0      1311         1         0      1314         1         0
      1317         1         0      1320         1         0      1323         1         0
      1326         1         0      1329         1         0      1333         1         0
      1336         1         0      1339         1         0      1342         1         0
      1345         1         0      1348         1         0      1351         1         0
      1353         1         0      1355         1         0      1358         1         0
      1361         1         0      1364         1         0      1367         1         0
      1370         1         0      1373         1         0      1376         1         0
      1380         2         0      1396         2         0      1407         1         0
      1415         1         0      1424         1         0      1427         1         0
      1430         1         0      1433         1         0      1436         1         0
      1439         1         0      1442         1         0      1444         1         0
      1446         1         0      1449         1         0      1452         1         0
      1455         1         0      1458         1         0      1461         1         0
      1464         1         0      1467         1         0      1471         1         0
      1474         1         0      1477         1         0      1480         1         0
      1483         1         0      1486         1         0      1489         1         0
      1491         1         0      1493         1         0      1496         1         0
      1499         1         0      1502         1         0      1505         1         0
      1508         1         0      1511         1         0      1514         1         0
      1518         2         0      1534         2         0      1545         1         0
      1553         1         0      1562         1         0      1565         1         0
      1568         1         0      1571         1         0      1574         1         0
      1577         1         0      1580         1         0      1582         1         0
      1584         1         0      1587         1         0      1590         1         0
      1593         1         0      1596         1         0      1599         1         0
      1602         1         0      1605         1         0      1609         1         0
      1612         1         0      1615         1         0      1618         1         0
      1621         1         0      1624         1         0      1627         1         0
      1629         1         0      1631         1         0      1634         1         0
      1637         1         0      1640         1         0      1643         1         0
      1646         1         0      1649         1         0      1652         1         0
      1656         2         0      1672         2         0      1683         1         0
      1691         1         0      1700         1         0      1703         1         0
      1706         1         0      1709         1         0      1712         1         0
      1715         1         0      1718         1         0      1720         1         0
      1722         1         0      1725         1         0      1728         1         0
      1731         1         0      1734         1         0      1737         1         0
      1740         1         0      1743         1         0      1747         1         0
      1750         1         0      1753         1         0      1756         1         0
      1759         1         0      1762         1         0      1765         1         0
      1767         1         0      1769         1         0      1772         1         0
      1775         1         0      1778         1         0      1781         1         0
      1784         1         0      1787         1         0      1790         1         0
      1794         2         0      1810         2         0      1821         1         0
      1829         1         0      1838         1         0      1841         1         0
      1844         1         0      1847         1         0      1850         1         0
      1853         1         0      1856         1         0      1858         1         0
      1860         1         0      1863         1         0      1866         1         0
      1869         1         0      1872         1         0      1875         1         0
      1878         1         0      1881         1         0      1885         1         0
      1888         1         0      1891         1         0      1894         1         0
      1897         1         0      1900         1         0      1903         1         0
      1905         1         0      1907         1         0      1910         1         0
      1913         1         0      1916         1         0      1919         1         0
      1922         1         0      1925         1         0      1928         1         0
      1932         2         0      1948         2         0      1959         1         0
      1967         1         0      1976         1         0      1979         1         0
      1982         1         0      1985         1         0      1988         1         0
      1991         1         0      1994         1         0      1996         1         0
      1998         1         0      2001         1         0      2004         1         0
      2007         1         0      2010         1         0      2013         1         0
      2016         1         0      2019         1         0      2023         1         0
      2026         1         0      2029         1         0      2032         1         0
      2035         1         0      2038         1         0      2041         1         0
      2043         1         0      2045         1         0      2048         1         0
      2051         1         0      2054         1         0      2057         1         0
      2060         1         0      2063         1         0      2066         1         0
      2070         2         0      2086         2         0      2097         1         0
      2105         1         0      2114         1         0      2117         1         0
      2120         1         0      2123         1         0      2126         1         0
      2129         1         0      2132         1         0      2134         1         0
      2136         1         0      2139         1         0      2142         1         0
      2145         1         0      2148         1         0      2151         1         0
      2154         1         0      2157         1         0      2161         1         0
      2164         1         0      2167         1         0      2170         1         0
      2173         1         0      2176         1         0      2179         1         0
      2181         1         0      2183         1         0      2186         1         0
      2189         1         0      2192         1         0      2195         1         0
      2198         1         0      2201         1         0      2204         1         0
      2208         2         0      2224         2         0      2235         1         0
      2243         1         0      2252         1         0      2255         1         0
      2258         1         0      2261         1         0      2264         1         0
      2267         1         0      2270         1         0      2272         1         0
      2274         1         0      2277         1         0      2280         1         0
      2283         1         0      2286         1         0      2289         1         0
      2292         1         0      2295         1         0      2299         1         0
      2302         1         0      2305         1         0      2308         1         0
      2311         1         0      2314         1         0      2317         1         0
      2319         1         0      2321         1         0      2324         1         0
      2327         1         0      2330         1         0      2333         1         0
      2336         1         0      2339         1         0      2342         1         0
      2346         2         0      2362         2         0      2373         1         0
      2381         1         0      2390         1         0      2393         1         0
      2396         1         0      2399         1         0      2402         1         0
      2405         1         0      2408         1         0      2410         1         0
      2412         1         0      2415         1         0      2418         1         0
      2421         1         0      2424         1         0      2427         1         0
      2430         1         0      2433         1         0      2437         1         0
      2440         1         0      2443         1         0      2446         1         0
      2449         1         0      2452         1         0      2455         1         0
      2457         1         0      2459         1         0      2462         1         0
      2465         1         0      2468         1         0      2471         1         0
      2474         1         0      2477         1         0      2480         1         0
      2484         2         0      2500         2         0      2511         1         0
      2519         1         0      2528         1         0      2531         1         0
      2534         1         0      2537         1         0      2540         1         0
      2543         1         0      2546         1         0      2548         1         0
      2550         1         0      2553         1         0      2556         1         0
      2559         1         0      2562         1         0      2565         1         0
      2568         1         0      2571         1         0      2575         1         0
      2578         1         0      2581         1         0      2584         1         0
      2587         1         0      2590         1         0      2593         1         0
      2595         1         0      2597         1         0      2600         1         0
      2603         1         0      2606         1         0      2609         1         0
      2612         1         0      2615         1         0      2618         1         0
      2622         2         0      2638         2         0      2649         1         0
      2657         1         0      2666         1         0      2669         1         0
      2672         1         0      2675         1         0      2678         1         0
      2681         1         0      2684         1         0      2686         1         0
      2688         1         0      2691         1         0      2694         1         0
      2697         1         0      2700         1         0      2703         1         0
      2706         1         0      2709         1         0      2713         1         0
      2716         1         0      2719         1         0      2722         1         0
      2725         1         0      2728         1         0      2731         1         0
      2733         1         0      2735         1         0      2738         1         0
      2741         1         0      2744         1         0      2747         1         0
      2750         1         0      2753         1         0      2756         1         0
      2760         2         0      2776         2         0      2787         1         0
      2795         1         0      2804         1         0      2807         1         0
      2810         1         0      2813         1         0      2816         1         0
      2819         1         0      2822         1         0      2824         1         0
      2826         1         0      2829         1         0      2832         1         0
      2835         1         0      2838         1         0      2841         1         0
      2844         1         0      2847         1         0      2851         1         0
      2854         1         0      2857         1         0      2860         1         0
      2863         1         0      2866         1         0      2869         1         0
      2871         1         0      2873         1         0      2876         1         0
      2879         1         0      2882         1         0      2885         1         0
      2888         1         0      2891         1         0      2894         1         0
      2898         2         0      2914         2         0      2925         1         0
      2933         1         0      2942         1         0      2945         1         0
      2948         1         0      2951         1         0      2954         1         0
      2957         1         0      2960         1         0      2962         1         0
      2964         1         0      2967         1         0      2970         1         0
      2973         1         0      2976         1         0      2979         1         0
      2982         1         0      2985         1         0      2989         1         0
      2992         1         0      2995         1         0      2998         1         0
      3001         1         0      3004         1         0      3007         1         0
      3009         1         0      3011         1         0      3014         1         0
      3017         1         0      3020         1         0      3023         1         0
      3026         1         0      3029         1         0      3032         1         0
      3036         2         0      3052         2         0      3063         1         0
      3071         1         0      3080         1         0      3083         1         0
      3086         1         0      3089         1         0      3092         1         0
      3095         1         0      3098         1         0      3100         1         0
      3102         1         0      3105         1         0      3108         1         0
      3111         1         0      3114         1         0      3117         1         0
      3120         1         0      3123         1         0      3127         1         0
      3130         1         0      3133         1         0      3136         1         0
      3139         1         0      3142         1         0      3145         1         0
      3147         1         0      3149         1         0      3152         1         0
      3155         1         0      3158         1         0      3161         1         0
      3164         1         0      3167         1         0      3170         1         0
      3174         2         0      3190         2         0      3201         1         0
      3209         1         0      3218         1         0      3221         1         0
      3224         1         0      3227         1         0      3230         1         0
      3233         1         0      3236         1         0      3238         1         0
      3240         1         0      3243         1         0      3246         1         0
      3249         1         0      3252         1         0      3255         1         0
      3258         1         0      3261         1         0      3265         1         0
      3268         1         0      3271         1         0      3274         1         0
      3277         1         0      3280         1         0      3283         1         0
      3285         1         0      3287         1         0      3290         1         0
      3293         1         0      3296         1         0      3299         1         0
      3302         1         0      3305         1         0      3308         1         0
      3312         2         0      3328         2         0      3339         1         0
      3347         1         0      3356         1         0      3359         1         0
      3362         1         0      3365         1         0      3368         1         0
      3371         1         0      3374         1         0      3376         1         0
      3378         1         0      3381         1         0      3384         1         0
      3387         1         0      3390         1         0      3393         1         0
      3396         1         0      3399         1         0      3403         1         0
      3406         1         0      3409         1         0      3412         1         0
      3415         1         0      3418         1         0      3421         1         0
      3423         1         0      3425         1         0      3428         1         0
      3431         1         0      3434         1         0      3437         1         0
      3440         1         0      3443         1         0      3446         1         0
      3450         2         0      3466         2         0      3477         1         0
      3485         1         0      3494         1         0      3497         1         0
      3500         1         0      3503         1         0      3506         1         0
      3509         1         0      3512         1         0      3514         1         0
      3516         1         0      3519         1         0      3522         1         0
      3525         1         0      3528         1         0      3531         1         0
      3534         1         0      3537         1         0      3541         1         0
      3544         1         0      3547         1         0      3550         1         0
      3553         1         0      3556         1         0      3559         1         0
      3561         1         0      3563         1         0      3566         1         0
      3569         1         0      3572         1         0      3575         1         0
      3578         1         0      3581         1         0      3584         1         0
      3588         2         0      3604         2         0      3615         1         0
      3623         1         0      3632         1         0      3635         1         0
      3638         1         0      3641         1         0      3644         1         0
      3647         1         0      3650         1         0      3652         1         0
      3654         1         0      3657         1         0      3660         1         0
      3663         1         0      3666         1         0      3669         1         0
      3672         1         0      3675         1         0      3679         1         0
      3682         1         0      3685         1         0      3688         1         0
      3691         1         0      3694         1         0      3697         1         0
      3699         1         0      3701         1         0      3704         1         0
      3707         1         0      3710         1         0      3713         1         0
      3716         1         0      3719         1         0      3722         1         0
      3726         2         0      3742         2         0      3753         1         0
      3761         1         0      3770         1         0      3773         1         0
      3776         1         0      3779         1         0      3782         1         0
      3785         1         0      3788         1         0      3790         1         0
      3792         1         0      3795         1         0      3798         1         0
      3801         1         0      3804         1         0      3807         1         0
      3810         1         0      3813         1         0      3817         1         0
      3820         1         0      3823         1         0      3826         1         0
      3829         1         0      3832         1         0      3835         1         0
      3837         1         0      3839         1         0      3842         1         0
      3845         1         0      3848         1         0      3851         1         0
      3854         1         0      3857         1         0      3860         1         0
      3864         2         0      3880         2         0      3891         1         0
      3899         1         0      3908         1         0      3911         1         0
      3914         1         0      3917         1         0      3920         1         0
      3923         1         0      3926         1         0      3928         1         0
      3930         1         0      3933         1         0      3936         1         0
      3939         1         0      3942         1         0      3945         1         0
      3948         1         0      3951         1         0      3955         1         0
      3958         1         0      3961         1         0      3964         1         0
      3967         1         0      3970         1         0      3973         1         0
      3975         1         0      3977         1         0      3980         1         0
      3983         1         0      3986         1         0      3989         1         0
      3992         1         0      3995         1         0      3998         1         0
      4002         2         0      4018         2         0      4029         1         0
      4037         1         0      4046         1         0      4049         1         0
      4052         1         0      4055         1         0      4058         1         0
      4061         1         0      4064         1         0      4066         1         0
      4068         1         0      4071         1         0      4074         1         0
      4077         1         0      4080         1         0      4083         1         0
      4086         1         0      4089         1         0      4093         1         0
      4096         1         0      4099         1         0      4102         1         0
      4105         1         0      4108         1         0      4111         1         0
      4113         1         0      4115         1         0      4118         1         0
      4121         1         0      4124         1         0      4127         1         0
      4130         1         0      4133         1         0      4136         1         0
      4140         2         0      4156         2         0      4167         1         0
      4175         1         0      4184         1         0      4187         1         0
      4190         1         0      4193         1         0      4196         1         0
      4199         1         0      4202         1         0      4204         1         0
      4206         1         0      4209         1         0      4212         1         0
      4215         1         0      4218         1         0      4221         1         0
      4224         1         0      4227         1         0      4231         1         0
      4234         1         0      4237         1         0      4240         1         0
      4243         1         0      4246         1         0      4249         1         0
      4251         1         0      4253         1         0      4256         1         0
      4259         1         0      4262         1         0      4265         1         0
      4268         1         0      4271         1         0      4274         1         0
      4278         2         0      4294         2         0      4305         1         0
      4313         1         0      4322         1         0      4325         1         0
      4328         1         0      4331         1         0      4334         1         0
      4337         1         0      4340         1         0      4342         1         0
      4344         1         0      4347         1         0      4350         1         0
      4353         1         0      4356         1         0      4359         1         0
      4362         1         0      4365         1         0      4369         1         0
      4372         1         0      4375         1         0      4378         1         0
      4381         1         0      4384         1         0      4387         1         0
      4389         1         0      4391         1         0      4394         1         0
      4397         1         0      4400         1         0      4403         1         0
      4406         1         0      4409         1         0      4412         1         0
      4416         2         0      4432         2         0      4443         1         0
      4451         1         0      4460         1         0      4463         1         0
      4466         1         0      4469         1         0      4472         1         0
      4475         1         0      4478         1         0      4480         1         0
      4482         1         0      4485         1         0      4488         1         0
      4491         1         0      4494         1         0      4497         1         0
      4500         1         0      4503         1         0      4507         1         0
      4510         1         0      4513         1         0      4516         1         0
      4519         1         0      4522         1         0      4525         1         0
      4527         1         0      4529         1         0      4532         1         0
      4535         1         0      4538         1         0      4541         1         0
      4544         1         0      4547         1         0      4550         1         0
      4554         2         0      4570         2         0      4581         1         0
      4589         1         0      4598         1         0      4601         1         0
      4604         1         0      4607         1         0      4610         1         0
      4613         1         0      4616         1         0      4618         1         0
      4620         1         0      4623         1         0      4626         1         0
      4629         1         0      4632         1         0      4635         1         0
      4638         1         0      4641         1         0      4645         1         0
      4648         1         0      4651         1         0      4654         1         0
      4657         1         0      4660         1         0      4663         1         0
      4665         1         0      4667         1         0      4670         1         0
      4673         1         0      4676         1         0      4679         1         0
      4682         1         0      4685         1         0      4688         1         0
      4692         2         0      4708         2         0      4719         1         0
      4727         1         0      4736         1         0      4739         1         0
      4742         1         0      4745         1         0      4748         1         0
      4751         1         0      4754         1         0      4756         1         0
      4758         1         0      4761         1         0      4764         1         0
      4767         1         0      4770         1         0      4773         1         0
      4776         1         0      4779         1         0      4783         1         0
      4786         1         0      4789         1         0      4792         1         0
      4795         1         0      4798         1         0      4801         1         0
      4803         1         0      4805         1         0      4808         1         0
      4811         1         0      4814         1         0      4817         1         0
      4820         1         0      4823         1         0      4826         1         0
      4830         2         0      4846         2         0      4857         1         0
      4865         1         0      4874         1         0      4877         1         0
      4880         1         0      4883         1         0      4886         1         0
      4889         1         0      4892         1         0      4894         1         0
      4896         1         0      4899         1         0      4902         1         0
      4905         1         0      4908         1         0      4911         1         0
      4914         1         0      4917         1         0      4921         1         0
      4924         1         0      4927         1         0      4930         1         0
      4933         1         0      4936         1         0      4939         1         0
      4941         1         0      4943         1         0      4946         1         0
      4949         1         0      4952         1         0      4955         1         0
      4958         1         0      4961         1         0      4964         1         0
      4968         2         0      4984         2         0      4995         1         0
      5003         1         0      5012         1         0      5015         1         0
      5018         1         0      5021         1         0      5024         1         0
      5027         1         0      5030         1         0      5032         1         0
      5034         1         0      5037         1         0      5040         1         0
      5043         1         0      5046         1         0      5049         1         0
      5052         1         0      5055         1         0      5059         1         0
      5062         1         0      5065         1         0      5068         1         0
      5071         1         0      5074         1         0      5077         1         0
      5079         1         0      5081         1         0      5084         1         0
      5087         1         0      5090         1         0      5093         1         0
      5096         1         0      5099         1         0      5102         1         0
      5106         2         0      5122         2         0      5133         1         0
      5141         1         0      5150         1         0      5153         1         0
      5156         1         0      5159         1         0      5162         1         0
      5165         1         0      5168         1         0      5170         1         0
      5172         1         0      5175         1         0      5178         1         0
      5181         1         0      5184         1         0      5187         1         0
      5190         1         0      5193         1         0      5197         1         0
      5200         1         0      5203         1         0      5206         1         0
      5209         1         0      5212         1         0      5215         1         0
      5217         1         0      5219         1         0      5222         1         0
      5225         1         0      5228         1         0      5231         1         0
      5234         1         0      5237         1         0      5240         1         0
      5244         2         0      5260         2         0      5271         1         0
      5279         1         0      5288         1         0      5291         1         0
      5294         1         0      5297         1         0      5300         1         0
      5303         1         0      5306         1         0      5308         1         0
      5310         1         0      5313         1         0      5316         1         0
      5319         1         0      5322         1         0      5325         1         0
      5328         1         0      5331         1         0      5335         1         0
      5338         1         0      5341         1         0      5344         1         0
      5347         1         0      5350         1         0      5353         1         0
      5355         1         0      5357         1         0      5360         1         0
      5363         1         0      5366         1         0      5369         1         0
      5372         1         0      5375         1         0      5378         1         0
      5382         2         0      5398         2         0      5409         1         0
      5417         1         0      5426         1         0      5429         1         0
      5432         1         0      5435         1         0      5438         1         0
      5441         1         0      5444         1         0      5446         1         0
      5448         1         0      5451         1         0      5454         1         0
      5457         1         0      5460         1         0      5463         1         0
      5466         1         0      5469         1         0      5473         1         0
      5476         1         0      5479         1         0      5482         1         0
      5485         1         0      5488         1         0      5491         1         0
      5493         1         0      5495         1         0      5498         1         0
      5501         1         0      5504         1         0      5507         1         0
      5510         1         0      5513         1         0      5516         1         0
      5520         2         0      5536         2         0      5547         1         0
      5555         1         0      5564         1         0      5567         1         0
      5570         1         0      5573         1         0      5576         1         0
      5579         1         0      5582         1         0      5584         1         0
      5586         1         0      5589         1         0      5592         1         0
      5595         1         0      5598         1         0      5601         1         0
      5604         1         0      5607         1         0      5611         1         0
      5614         1         0      5617         1         0      5620         1         0
      5623         1         0      5626         1         0      5629         1         0
      5631         1         0      5633         1         0      5636         1         0
      5639         1         0      5642         1         0      5645         1         0
      5648         1         0      5651         1         0      5654         1         0
      5658         2         0      5674         2         0      5685         1         0
      5693         1         0      5702         1         0      5705         1         0
      5708         1         0      5711         1         0      5714         1         0
      5717         1         0      5720         1         0      5722         1         0
      5724         1         0      5727         1         0      5730         1         0
      5733         1         0      5736         1         0      5739         1         0
      5742         1         0      5745         1         0      5749         1         0
      5752         1         0      5755         1         0      5758         1         0
      5761         1         0      5764         1         0      5767         1         0
      5769         1         0      5771         1         0      5774         1         0
      5777         1         0      5780         1         0      5783         1         0
      5786         1         0      5789         1         0      5792         1         0
      5796         2         0      5812         2         0      5823         1         0
      5831         1         0      5840         1         0      5843         1         0
      5846         1         0      5849         1         0      5852         1         0
      5855         1         0      5858         1         0      5860         1         0
      5862         1         0      5865         1         0      5868         1         0
      5871         1         0      5874         1         0      5877         1         0
      5880         1         0      5883         1         0      5887         1         0
      5890         1         0      5893         1         0      5896         1         0
      5899         1         0      5902         1         0      5905         1         0
      5907         1         0      5909         1         0      5912         1         0
      5915         1         0      5918         1         0      5921         1         0
      5924         1         0      5927         1         0      5930         1         0
      5934         2         0      5950         2         0      5961         1         0
      5969         1         0      5978         1         0      5981         1         0
      5984         1         0      5987         1         0      5990         1         0
      5993         1         0      5996         1         0      5998         1         0
      6000         1         0      6003         1         0      6006         1         0
      6009         1         0      6012         1         0      6015         1         0
      6018         1         0      6021         1         0      6025         1         0
      6028         1         0      6031         1         0      6034         1         0
      6037         1         0      6040         1         0      6043         1         0
      6045         1         0      6047         1         0      6050         1         0
      6053         1         0      6056         1         0      6059         1         0
      6062         1         0      6065         1         0      6068         1         0
      6072         2         0      6088         2         0      6099         1         0
      6107         1         0      6116         1         0      6119         1         0
      6122         1         0      6125         1         0      6128         1         0
      6131         1         0      6134         1         0      6136         1         0
      6138         1         0      6141         1         0      6144         1         0
      6147         1         0      6150         1         0      6153         1         0
      6156         1         0      6159         1         0      6163         1         0
      6166         1         0      6169         1         0      6172         1         0
      6175         1         0      6178         1         0      6181         1         0
      6183         1         0      6185         1         0      6188         1         0
      6191         1         0      6194         1         0      6197         1         0
      6200         1         0      6203         1         0      6206         1         0
      6210         2         0      6226         2         0      6237         1         0
      6245         1         0      6254         1         0      6257         1         0
      6260         1         0      6263         1         0      6266         1         0
      6269         1         0      6272         1         0      6274         1         0
      6276         1         0      6279         1         0      6282         1         0
      6285         1         0      6288         1         0      6291         1         0
      6294         1         0      6297         1         0      6301         1         0
      6304         1         0      6307         1         0      6310         1         0
      6313         1         0      6316         1         0      6319         1         0
      6321         1         0      6323         1         0      6326         1         0
      6329         1         0      6332         1         0      6335         1         0
      6338         1         0      6341         1         0      6344         1         0
      6348         2         0      6364         2         0      6375         1         0
      6383         1         0      6392         1         0      6395         1         0
      6398         1         0      6401         1         0      6404         1         0
      6407         1         0      6410         1         0      6412         1         0
      6414         1         0      6417         1         0      6420         1         0
      6423         1         0      6426         1         0      6429         1         0
      6432         1         0      6435         1         0      6439         1         0
      6442         1         0      6445         1         0      6448         1         0
      6451         1         0      6454         1         0      6457         1         0
      6459         1         0      6461         1         0      6464         1         0
      6467         1         0      6470         1         0      6473         1         0
      6476         1         0      6479         1         0      6482         1         0
      6486         2         0      6502         2         0      6513         1         0
      6521         1         0      6530         1         0      6533         1         0
      6536         1         0      6539         1         0      6542         1         0
      6545         1         0      6548         1         0      6550         1         0
      6552         1         0      6555         1         0      6558         1         0
      6561         1         0      6564         1         0      6567         1         0
      6570         1         0      6573         1         0      6577         1         0
      6580         1         0      6583         1         0      6586         1         0
      6589         1         0      6592         1         0      6595         1         0
      6597         1         0      6599         1         0      6602         1         0
      6605         1         0      6608         1         0      6611         1         0
      6614         1         0      6617         1         0      6620         1         0
      6624         2         0      6640         2         0      6651         1         0
      6659         1         0      6668         1         0      6671         1         0
      6674         1         0      6677         1         0      6680         1         0
      6683         1         0      6686         1         0      6688         1         0
      6690         1         0      6693         1         0      6696         1         0
      6699         1         0      6702         1         0      6705         1         0
      6708         1         0      6711         1         0      6715         1         0
      6718         1         0      6721         1         0      6724         1         0
      6727         1         0      6730         1         0      6733         1         0
      6735         1         0      6737         1         0      6740         1         0
      6743         1         0      6746         1         0      6749         1         0
      6752         1         0      6755         1         0      6758         1         0
      6762         2         0      6778         2         0      6789         1         0
      6797         1         0      6806         1         0      6809         1         0
      6812         1         0      6815         1         0      6818         1         0
      6821         1         0      6824         1         0      6826         1         0
      6828         1         0      6831         1         0      6834         1         0
      6837         1         0      6840         1         0      6843         1         0
      6846         1         0      6849         1         0      6853         1         0
      6856         1         0      6859         1         0      6862         1         0
      6865         1         0      6868         1         0      6871         1         0
      6873         1         0      6875         1         0      6878         1         0
      6881         1         0      6884         1         0      6887         1         0
      6890         1         0      6893         1         0      6896         1         0
      6900         2         0      6916         2         0      6927         1         0
      6935         1         0      6944         1         0      6947         1         0
      6950         1         0      6953         1         0      6956         1         0
      6959         1         0      6962         1         0      6964         1         0
      6966         1         0      6969         1         0      6972         1         0
      6975         1         0      6978         1         0      6981         1         0
      6984         1         0      6987         1         0      6991         1         0
      6994         1         0      6997         1         0      7000         1         0
      7003         1         0      7006         1         0      7009         1         0
      7011         1         0      7013         1         0      7016         1         0
      7019         1         0      7022         1         0      7025         1         0
      7028         1         0      7031         1         0      7034         1         0
      7038         2         0      7054         2         0      7065         1         0
      7073         1         0      7082         1         0      7085         1         0
      7088         1         0      7091         1         0      7094         1         0
      7097         1         0      7100         1         0      7102         1         0
      7104         1         0      7107         1         0      7110         1         0
      7113         1         0      7116         1         0      7119         1         0
      7122         1         0      7125         1         0      7129         1         0
      7132         1         0      7135         1         0      7138         1         0
      7141         1         0      7144         1         0      7147         1         0
      7149         1         0      7151         1         0      7154         1         0
      7157         1         0      7160         1         0      7163         1         0
      7166         1         0      7169         1         0      7172         1         0
      7176         2         0      7192         2         0      7203         1         0
      7211         1         0      7220         1         0      7223         1         0
      7226         1         0      7229         1         0      7232         1         0
      7235         1         0      7238         1         0      7240         1         0
      7242         1         0      7245         1         0      7248         1         0
      7251         1         0      7254         1         0      7257         1         0
      7260         1         0      7263         1         0      7267         1         0
      7270         1         0      7273         1         0      7276         1         0
      7279         1         0      7282         1         0      7285         1         0
      7287         1         0      7289         1         0      7292         1         0
      7295         1         0      7298         1         0      7301         1         0
      7304         1         0      7307         1         0      7310         1         0
      7314         2         0      7330         2         0      7341         1         0
      7349         1         0      7358         1         0      7361         1         0
      7364         1         0      7367         1         0      7370         1         0
      7373         1         0      7376         1         0      7378         1         0
      7380         1         0      7383         1         0      7386         1         0
      7389         1         0      7392         1         0      7395         1         0
      7398         1         0      7401         1         0      7405         1         0
      7408         1         0      7411         1         0      7414         1         0
      7417         1         0      7420         1         0      7423         1         0
      7425         1         0      7427         1         0      7430         1         0
      7433         1         0      7436         1         0      7439         1         0
      7442         1         0      7445         1         0      7448         1         0
      7452         2         0      7468         2         0      7479         1         0
      7487         1         0      7496         1         0      7499         1         0
      7502         1         0      7505         1         0      7508         1         0
      7511         1         0      7514         1         0      7516         1         0
      7518         1         0      7521         1         0      7524         1         0
      7527         1         0      7530         1         0      7533         1         0
      7536         1         0      7539         1         0      7543         1         0
      7546         1         0      7549         1         0      7552         1         0
      7555         1         0      7558         1         0      7561         1         0
      7563         1         0      7565         1         0      7568         1         0
      7571         1         0      7574         1         0      7577         1         0
      7580         1         0      7583         1         0      7586         1         0
      7590         2         0      7606         2         0      7617         1         0
      7625         1         0      7634         1         0      7637         1         0
      7640         1         0      7643         1         0      7646         1         0
      7649         1         0      7652         1         0      7654         1         0
      7656         1         0      7659         1         0      7662         1         0
      7665         1         0      7668         1         0      7671         1         0
      7674         1         0      7677         1         0      7681         1         0
      7684         1         0      7687         1         0      7690         1         0
      7693         1         0      7696         1         0      7699         1         0
      7701         1         0      7703         1         0      7706         1         0
      7709         1         0      7712         1         0      7715         1         0
      7718         1         0      7721         1         0      7724         1         0
      7728         2         0      7744         2         0      7755         1         0
      7763         1         0      7772         1         0      7775         1         0
      7778         1         0      7781         1         0      7784         1         0
      7787         1         0      7790         1         0      7792         1         0
      7794         1         0      7797         1         0      7800         1         0
      7803         1         0      7806         1         0      7809         1         0
      7812         1         0      7815         1         0      7819         1         0
      7822         1         0      7825         1         0      7828         1         0
      7831         1         0      7834         1         0      7837         1         0
      7839         1         0      7841         1         0      7844         1         0
      7847         1         0      7850         1         0      7853         1         0
      7856         1         0      7859         1         0      7862         1         0
      7866         2         0      7882         2         0      7893         1         0
      7901         1         0      7910         1         0      7913         1         0
      7916         1         0      7919         1         0      7922         1         0
      7925         1         0      7928         1         0      7930         1         0
      7932         1         0      7935         1         0      7938         1         0
      7941         1         0      7944         1         0      7947         1         0
      7950         1         0      7953         1         0      7957         1         0
      7960         1         0      7963         1         0      7966         1         0
      7969         1         0      7972         1         0      7975         1         0
      7977         1         0      7979         1         0      7982         1         0
      7985         1         0      7988         1         0      7991         1         0
      7994         1         0      7997         1         0      8000         1         0
      8004         2         0      8020         2         0      8031         1         0
      8039         1         0      8048         1         0      8051         1         0
      8054         1         0      8057         1         0      8060         1         0
      8063         1         0      8066         1         0      8068         1         0
      8070         1         0      8073         1         0      8076         1         0
      8079         1         0      8082         1         0      8085         1         0
      8088         1         0      8091         1         0      8095         1         0
      8098         1         0      8101         1         0      8104         1         0
      8107         1         0      8110         1         0      8113         1         0
      8115         1         0      8117         1         0      8120         1         0
      8123         1         0      8126         1         0      8129         1         0
      8132         1         0      8135         1         0      8138         1         0
      8142         2         0      8158         2         0      8169         1         0
      8177         1         0      8186         1         0      8189         1         0
      8192         1         0      8195         1         0      8198         1         0
      8201         1         0      8204         1         0      8206         1         0
      8208         1         0      8211         1         0      8214         1         0
      8217         1         0      8220         1         0      8223         1         0
      8226         1         0      8229         1         0      8233         1         0
      8236         1         0      8239         1         0      8242         1         0
      8245         1         0      8248         1         0      8251         1         0
      8253         1         0      8255         1         0      8258         1         0
      8261         1         0      8264         1         0      8267         1         0
      8270         1         0      8273         1         0      8276         1         0
      8280         2         0      8296         2         0      8307         1         0
      8315         1         0      8324         1         0      8327         1         0
      8330         1         0      8333         1         0      8336         1         0
      8339         1         0      8342         1         0      8344         1         0
      8346         1         0      8349         1         0      8352         1         0
      8355         1         0      8358         1         0      8361         1         0
      8364         1         0      8367         1         0      8371         1         0
      8374         1         0      8377         1         0      8380         1         0
      8383         1         0      8386         1         0      8389         1         0
      8391         1         0      8393         1         0      8396         1         0
      8399         1         0      8402         1         0      8405         1         0
      8408         1         0      8411         1         0      8414         1         0
      8418         2         0      8434         2         0      8445         1         0
      8453         1         0      8462         1         0      8465         1         0
      8468         1         0      8471         1         0      8474         1         0
      8477         1         0      8480         1         0      8482         1         0
      8484         1         0      8487         1         0      8490         1         0
      8493         1         0      8496         1         0      8499         1         0
      8502         1         0      8505         1         0      8509         1         0
      8512         1         0      8515         1         0      8518         1         0
      8521         1         0      8524         1         0      8527         1         0
      8529         1         0      8531         1         0      8534         1         0
      8537         1         0      8540         1         0      8543         1         0
      8546         1         0      8549         1         0      8552         1         0
      8556         2         0      8572         2         0      8583         1         0
      8591         1         0      8600         1         0      8603         1         0
      8606         1         0      8609         1         0      8612         1         0
      8615         1         0      8618         1         0      8620         1         0
      8622         1         0      8625         1         0      8628         1         0
      8631         1         0      8634         1         0      8637         1         0
      8640         1         0      8643         1         0      8647         1         0
      8650         1         0      8653         1         0      8656         1         0
      8659         1         0      8662         1         0      8665         1         0
      8667         1         0      8669         1         0      8672         1         0
      8675         1         0      8678         1         0      8681         1         0
      8684         1         0      8687         1         0      8690         1         0
      8694         2         0      8710         2         0      8721         1         0
      8729         1         0      8738         1         0      8741         1         0
      8744         1         0      8747         1         0      8750         1         0
      8753         1         0      8756         1         0      8758         1         0
      8760         1         0      8763         1         0      8766         1         0
      8769         1         0      8772         1         0      8775         1         0
      8778         1         0      8781         1         0      8785         1         0
      8788         1         0      8791         1         0      8794         1         0
      8797         1         0      8800         1         0      8803         1         0
      8805         1         0      8807         1         0      8810         1         0
      8813         1         0      8816         1         0      8819         1         0
      8822         1         0      8825         1         0      8828         1         0
      8832         2         0      8848         2         0      8859         1         0
      8867         1         0      8876         1         0      8879         1         0
      8882         1         0      8885         1         0      8888         1         0
      8891         1         0      8894         1         0      8896         1         0
      8898         1         0      8901         1         0      8904         1         0
      8907         1         0      8910         1         0      8913         1         0
      8916         1         0      8919         1         0      8923         1         0
      8926         1         0      8929         1         0      8932         1         0
      8935         1         0      8938         1         0      8941         1         0
      8943         1         0      8945         1         0      8948         1         0
      8951         1         0      8954         1         0      8957         1         0
      8960         1         0      8963         1         0      8966         1         0
      8970         2         0      8986         2         0      8997         1         0
      9005         1         0      9014         1         0      9017         1         0
      9020         1         0      9023         1         0      9026         1         0
      9029         1         0      9032         1         0      9034         1         0
      9036         1         0      9039         1         0      9042         1         0
      9045         1         0      9048         1         0      9051         1         0
      9054         1         0      9057         1         0      9061         1         0
      9064         1         0      9067         1         0      9070         1         0
      9073         1         0      9076         1         0      9079         1         0
      9081         1         0      9083         1         0      9086         1         0
      9089         1         0      9092         1         0      9095         1         0
      9098         1         0      9101         1         0      9104         1         0
      9108         2         0      9124         2         0      9135         1         0
      9143         1         0      9152         1         0      9155         1         0
      9158         1         0      9161         1         0      9164         1         0
      9167         1         0      9170         1         0      9172         1         0
      9174         1         0      9177         1         0      9180         1         0
      9183         1         0      9186         1         0      9189         1         0
      9192         1         0      9195         1         0      9199         1         0
      9202         1         0      9205         1         0      9208         1         0
      9211         1         0      9214         1         0      9217         1         0
      9219         1         0      9221         1         0      9224         1         0
      9227         1         0      9230         1         0      9233         1         0
      9236         1         0      9239         1         0      9242         1         0
      9246         2         0      9262         2         0      9273         1         0
      9281         1         0      9290         1         0      9293         1         0
      9296         1         0      9299         1         0      9302         1         0
      9305         1         0      9308         1         0      9310         1         0
      9312         1         0      9315         1         0      9318         1         0
      9321         1         0      9324         1         0      9327         1         0
      9330         1         0      9333         1         0      9337         1         0
      9340         1         0      9343         1         0      9346         1         0
      9349         1         0      9352         1         0      9355         1         0
      9357         1         0      9359         1         0      9362         1         0
      9365         1         0      9368         1         0      9371         1         0
      9374         1         0      9377         1         0      9380         1         0
      9384         2         0      9400         2         0      9411         1         0
      9419         1         0      9428         1         0      9431         1         0
      9434         1         0      9437         1         0      9440         1         0
      9443         1         0      9446         1         0      9448         1         0
      9450         1         0      9453         1         0      9456         1         0
      9459         1         0      9462         1         0      9465         1         0
      9468         1         0      9471         1         0      9475         1         0
      9478         1         0      9481         1         0      9484         1         0
      9487         1         0      9490         1         0      9493         1         0
      9495         1         0      9497         1         0      9500         1         0
      9503         1         0      9506         1         0      9509         1         0
      9512         1         0      9515         1         0      9518         1         0
      9522         2         0      9538         2         0      9549         1         0
      9557         1         0      9566         1         0      9569         1         0
      9572         1         0      9575         1         0      9578         1         0
      9581         1         0      9584         1         0      9586         1         0
      9588         1         0      9591         1         0      9594         1         0
      9597         1         0      9600         1         0      9603         1         0
      9606         1         0      9609         1         0      9613         1         0
      9616         1         0      9619         1         0      9622         1         0
      9625         1         0      9628         1         0      9631         1         0
      9633         1         0      9635         1         0      9638         1         0
      9641         1         0      9644         1         0      9647         1         0
      9650         1         0      9653         1         0      9656         1         0
      9660         2         0      9676         2         0      9687         1         0
      9695         1         0      9704         1         0      9707         1         0
      9710         1         0      9713         1         0      9716         1         0
      9719         1         0      9722         1         0      9724         1         0
      9726         1         0      9729         1         0      9732         1         0
      9735         1         0      9738         1         0      9741         1         0
      9744         1         0      9747         1         0      9751         1         0
      9754         1         0      9757         1         0      9760         1         0
      9763         1         0      9766         1         0      9769         1         0
      9771         1         0      9773         1         0      9776         1         0
      9779         1         0      9782         1         0      9785         1         0
      9788         1         0      9791         1         0      9794         1         0
      9798         2         0      9814         2         0      9825         1         0
      9833         1         0      9842         1         0      9845         1         0
      9848         1         0      9851         1         0      9854         1         0
      9857         1         0      9860         1         0      9862         1         0
      9864         1         0      9867         1         0      9870         1         0
      9873         1         0      9876         1         0      9879         1         0
      9882         1         0      9885         1         0      9889         1         0
      9892         1         0      9895         1         0      9898         1         0
      9901         1         0      9904         1         0      9907         1         0
      9909         1         0      9911         1         0      9914         1         0
      9917         1         0      9920         1         0      9923         1         0
      9926         1         0      9929         1         0      9932         1         0
      9936         2         0      9952         2         0      9963         1         0
      9971         1         0      9980         1         0      9983         1         0
      9986         1         0      9989         1         0      9992         1         0
      9995         1         0      9998         1         0     10000         1         0
     10002         1         0     10005         1         0     10008         1         0
     10011         1         0     10014         1         0     10017         1         0
     10020         1         0     10023         1         0     10027         1         0
     10030         1         0     10033         1         0     10036         1         0
     10039         1         0     10042         1         0     10045         1         0
     10047         1         0     10049         1         0     10052         1         0
     10055         1         0     10058         1         0     10061         1         0
     10064         1         0     10067         1         0     10070         1         0
     10074         2         0     10090         2         0     10101         1         0
     10109         1         0     10118         1         0     10121         1         0
     10124         1         0     10127         1         0     10130         1         0
     10133         1         0     10136         1         0     10138         1         0
     10140         1         0     10143         1         0     10146         1         0
     10149         1         0     10152         1         0     10155         1         0
     10158         1         0     10161         1         0     10165         1         0
     10168         1         0     10171         1         0     10174         1         0
     10177         1         0     10180         1         0     10183         1         0
     10185         1         0     10187         1         0     10190         1         0
     10193         1         0     10196         1         0     10199         1         0
     10202         1         0     10205         1         0     10208         1         0
     10212         2         0     10228         2         0     10239         1         0
     10247         1         0     10256         1         0     10259         1         0
     10262         1         0     10265         1         0     10268         1         0
     10271         1         0     10274         1         0     10276         1         0
     10278         1         0     10281         1         0     10284         1         0
     10287         1         0     10290         1         0     10293         1         0
     10296         1         0     10299         1         0     10303         1         0
     10306         1         0     10309         1         0     10312         1         0
     10315         1         0     10318         1         0     10321         1         0
     10323         1         0     10325         1         0     10328         1         0
     10331         1         0     10334         1         0     10337         1         0
     10340         1         0     10343         1         0     10346         1         0
     10350         2         0     10366         2         0     10377         1         0
     10385         1         0     10394         1         0     10397         1         0
     10400         1         0     10403         1         0     10406         1         0
     10409         1         0     10412         1         0     10414         1         0
     10416         1         0     10419         1         0     10422         1         0
     10425         1         0     10428         1         0     10431         1         0
     10434         1         0     10437         1         0     10441         1         0
     10444         1         0     10447         1         0     10450         1         0
     10453         1         0     10456         1         0     10459         1         0
     10461         1         0     10463         1         0     10466         1         0
     10469         1         0     10472         1         0     10475         1         0
     10478         1         0     10481         1         0     10484         1         0
     10488         2         0     10504         2         0     10515         1         0
     10523         1         0     10532         1         0     10535         1         0
     10538         1         0     10541         1         0     10544         1         0
     10547         1         0     10550         1         0     10552         1         0
     10554         1         0     10557         1         0     10560         1         0
     10563         1         0     10566         1         0     10569         1         0
     10572         1         0     10575         1         0     10579         1         0
     10582         1         0     10585         1         0     10588         1         0
     10591         1         0     10594         1         0     10597         1         0
     10599         1         0     10601         1         0     10604         1         0
     10607         1         0     10610         1         0     10613         1         0
     10616         1         0     10619         1         0     10622         1         0
     10626         2         0     10642         2         0     10653         1         0
     10661         1         0     10670         1         0     10673         1         0
     10676         1         0     10679         1         0     10682         1         0
     10685         1         0     10688         1         0     10690         1         0
     10692         1         0     10695         1         0     10698         1         0
     10701         1         0     10704         1         0     10707         1         0
     10710         1         0     10713         1         0     10717         1         0
     10720         1         0     10723         1         0     10726         1         0
     10729         1         0     10732         1         0     10735         1         0
     10737         1         0     10739         1         0     10742         1         0
     10745         1         0     10748         1         0     10751         1         0
     10754         1         0     10757         1         0     10760         1         0
     10764         2         0     10780         2         0     10791         1         0
     10799         1         0     10808         1         0     10811         1         0
     10814         1         0     10817         1         0     10820         1         0
     10823         1         0     10826         1         0     10828         1         0
     10830         1         0     10833         1         0     10836         1         0
     10839         1         0     10842         1         0     10845         1         0
     10848         1         0     10851         1         0     10855         1         0
     10858         1         0     10861         1         0     10864         1         0
     10867         1         0     10870         1         0     10873         1         0
     10875         1         0     10877         1         0     10880         1         0
     10883         1         0     10886         1         0     10889         1         0
     10892         1         0     10895         1         0     10898         1         0
     10902         2         0     10918         2         0     10929         1         0
     10937         1         0     10946         1         0     10949         1         0
     10952         1         0     10955         1         0     10958         1         0
     10961         1         0     10964         1         0     10966         1         0
     10968         1         0     10971         1         0     10974         1         0
     10977         1         0     10980         1         0     10983         1         0
     10986         1         0     10989         1         0     10993         1         0
     10996         1         0     10999         1         0     11002         1         0
     11005         1         0     11008         1         0     11011         1         0
     11013         1         0     11015         1         0     11018         1         0
     11021         1         0     11024         1         0     11027         1         0
     11030         1         0     11033         1         0     11036         1         0
     11040         2         0     11056         2         0     11067         1         0
     11075         1         0     11084         1         0     11087         1         0
     11090         1         0     11093         1         0     11096         1         0
     11099         1         0     11102         1         0     11104         1         0
     11106         1         0     11109         1         0     11112         1         0
     11115         1         0     11118         1         0     11121         1         0
     11124         1         0     11127         1         0     11131         1         0
     11134         1         0     11137         1         0     11140         1         0
     11143         1         0     11146         1         0     11149         1         0
     11151         1         0     11153         1         0     11156         1         0
     11159         1         0     11162         1         0     11165         1         0
     11168         1         0     11171         1         0     11174         1         0
     11178         2         0     11194         2         0     11205         1         0
     11213         1         0     11222         1         0     11225         1         0
     11228         1         0     11231         1         0     11234         1         0
     11237         1         0     11240         1         0     11242         1         0
     11244         1         0     11247         1         0     11250         1         0
     11253         1         0     11256         1         0     11259         1         0
     11262         1         0     11265         1         0     11269         1         0
     11272         1         0     11275         1         0     11278         1         0
     11281         1         0     11284         1         0     11287         1         0
     11289         1         0     11291         1         0     11294         1         0
     11297         1         0     11300         1         0     11303         1         0
     11306         1         0     11309         1         0     11312         1         0
     11316         2         0     11332         2         0     11343         1         0
     11351         1         0     11360         1         0     11363         1         0
     11366         1         0     11369         1         0     11372         1         0
     11375         1         0     11378         1         0     11380         1         0
     11382         1         0     11385         1         0     11388         1         0
     11391         1         0     11394         1         0     11397         1         0
     11400         1         0     11403         1         0     11407         1         0
     11410         1         0     11413         1         0     11416         1         0
     11419         1         0     11422         1         0     11425         1         0
     11427         1         0     11429         1         0     11432         1         0
     11435         1         0     11438         1         0     11441         1         0
     11444         1         0     11447         1         0     11450         1         0
     11454         2         0     11470         2         0     11481         1         0
     11489         1         0     11498         1         0     11501         1         0
     11504         1         0     11507         1         0     11510         1         0
     11513         1         0     11516         1         0     11518         1         0
     11520         1         0     11523         1         0     11526         1         0
     11529         1         0     11532         1         0     11535         1         0
     11538         1         0     11541         1         0     11545         1         0
     11548         1         0     11551         1         0     11554         1         0
     11557         1         0     11560         1         0     11563         1         0
     11565         1         0     11567         1         0     11570         1         0
     11573         1         0     11576         1         0     11579         1         0
     11582         1         0     11585         1         0     11588         1         0
     11592         2         0     11608         2         0     11619         1         0
     11627         1         0     11636         1         0     11639         1         0
     11642         1         0     11645         1         0     11648         1         0
     11651         1         0     11654         1         0     11656         1         0
     11658         1         0     11661         1         0     11664         1         0
     11667         1         0     11670         1         0     11673         1         0
     11676         1         0     11679         1         0     11683         1         0
     11686         1         0     11689         1         0     11692         1         0
     11695         1         0     11698         1         0     11701         1         0
     11703         1         0     11705         1         0     11708         1         0
     11711         1         0     11714         1         0     11717         1         0
     11720         1         0     11723         1         0     11726         1         0
     11730         2         0     11746         2         0     11757         1         0
     11765         1         0     11774         1         0     11777         1         0
     11780         1         0     11783         1         0     11786         1         0
     11789         1         0     11792         1         0     11794         1         0
     11796         1         0     11799         1         0     11802         1         0
     11805         1         0     11808         1         0     11811         1         0
     11814         1         0     11817         1         0     11821         1         0
     11824         1         0     11827         1         0     11830         1         0
     11833         1         0     11836         1         0     11839         1         0
     11841         1         0     11843         1         0     11846         1         0
     11849         1         0     11852         1         0     11855         1         0
     11858         1         0     11861         1         0     11864         1         0
     11868         2         0     11884         2         0     11895         1         0
     11903         1         0     11912         1         0     11915         1         0
     11918         1         0     11921         1         0     11924         1         0
     11927         1         0     11930         1         0     11932         1         0
     11934         1         0     11937         1         0     11940         1         0
     11943         1         0     11946         1         0     11949         1         0
     11952         1         0     11955         1         0     11959         1         0
     11962         1         0     11965         1         0     11968         1         0
     11971         1         0     11974         1         0     11977         1         0
     11979         1         0     11981         1         0     11984         1         0
     11987         1         0     11990         1         0     11993         1         0
     11996         1         0     11999         1         0     12002         1         0
     12006         2         0     12022         2         0     12033         1         0
     12041         1         0     12050         1         0     12053         1         0
     12056         1         0     12059         1         0     12062         1         0
     12065         1         0     12068         1         0     12070         1         0
     12072         1         0     12075         1         0     12078         1         0
     12081         1         0     12084         1         0     12087         1         0
     12090         1         0     12093         1         0     12097         1         0
     12100         1         0     12103         1         0     12106         1         0
     12109         1         0     12112         1         0     12115         1         0
     12117         1         0     12119         1         0     12122         1         0
     12125         1         0     12128         1         0     12131         1         0
     12134         1         0     12137         1         0     12140         1         0
     12144         2         0     12160         2         0     12171         1         0
     12179         1         0     12188         1         0     12191         1         0
     12194         1         0     12197         1         0     12200         1         0
     12203         1         0     12206         1         0     12208         1         0
     12210         1         0     12213         1         0     12216         1         0
     12219         1         0     12222         1         0     12225         1         0
     12228         1         0     12231         1         0     12235         1         0
     12238         1         0     12241         1         0     12244         1         0
     12247         1         0     12250         1         0     12253         1         0
     12255         1         0     12257         1         0     12260         1         0
     12263         1         0     12266         1         0     12269         1         0
     12272         1         0     12275         1         0     12278         1         0
     12282         2         0     12298         2         0     12309         1         0
     12317         1         0     12326         1         0     12329         1         0
     12332         1         0     12335         1         0     12338         1         0
     12341         1         0     12344         1         0     12346         1         0
     12348         1         0     12351         1         0     12354         1         0
     12357         1         0     12360         1         0     12363         1         0
     12366         1         0     12369         1         0     12373         1         0
     12376         1         0     12379         1         0     12382         1         0
     12385         1         0     12388         1         0     12391         1         0
     12393         1         0     12395         1         0     12398         1         0
     12401         1         0     12404         1         0     12407         1         0
     12410         1         0     12413         1         0     12416         1         0
     12420         2         0     12436         2         0     12447         1         0
     12455         1         0     12464         1         0     12467         1         0
     12470         1         0     12473         1         0     12476         1         0
     12479         1         0     12482         1         0     12484         1         0
     12486         1         0     12489         1         0     12492         1         0
     12495         1         0     12498         1         0     12501         1         0
     12504         1         0     12507         1         0     12511         1         0
     12514         1         0     12517         1         0     12520         1         0
     12523         1         0     12526         1         0     12529         1         0
     12531         1         0     12533         1         0     12536         1         0
     12539         1         0     12542         1         0     12545         1         0
     12548         1         0     12551         1         0     12554         1         0
     12558         2         0     12574         2         0     12585         1         0
     12593         1         0     12602         1         0     12605         1         0
     12608         1         0     12611         1         0     12614         1         0
     12617         1         0     12620         1         0     12622         1         0
     12624         1         0     12627         1         0     12630         1         0
     12633         1         0     12636         1         0     12639         1         0
     12642         1         0     12645         1         0     12649         1         0
     12652         1         0     12655         1         0     12658         1         0
     12661         1         0     12664         1         0     12667         1         0
     12669         1         0     12671         1         0     12674         1         0
     12677         1         0     12680         1         0     12683         1         0
     12686         1         0     12689         1         0     12692         1         0
     12696         2         0     12712         2         0     12723         1         0
     12731         1         0     12740         1         0     12743         1         0
     12746         1         0     12749         1         0     12752         1         0
     12755         1         0     12758         1         0     12760         1         0
     12762         1         0     12765         1         0     12768         1         0
     12771         1         0     12774         1         0     12777         1         0
     12780         1         0     12783         1         0     12787         1         0
     12790         1         0     12793         1         0     12796         1         0
     12799         1         0     12802         1         0     12805         1         0
     12807         1         0     12809         1         0     12812         1         0
     12815         1         0     12818         1         0     12821         1         0
     12824         1         0     12827         1         0     12830         1         0
     12834         2         0     12850         2         0     12861         1         0
     12869         1         0     12878         1         0     12881         1         0
     12884         1         0     12887         1         0     12890         1         0
     12893         1         0     12896         1         0     12898         1         0
     12900         1         0     12903         1         0     12906         1         0
     12909         1         0     12912         1         0     12915         1         0
     12918         1         0     12921         1         0     12925         1         0
     12928         1         0     12931         1         0     12934         1         0
     12937         1         0     12940         1         0     12943         1         0
     12945         1         0     12947         1         0     12950         1         0
     12953         1         0     12956         1         0     12959         1         0
     12962         1         0     12965         1         0     12968         1         0
     12972         2         0     12988         2         0     12999         1         0
     13007         1         0     13016         1         0     13019         1         0
     13022         1         0     13025         1         0     13028         1         0
     13031         1         0     13034         1         0     13036         1         0
     13038         1         0     13041         1         0     13044         1         0
     13047         1         0     13050         1         0     13053         1         0
     13056         1         0     13059         1         0     13063         1         0
     13066         1         0     13069         1         0     13072         1         0
     13075         1         0     13078         1         0     13081         1         0
     13083         1         0     13085         1         0     13088         1         0
     13091         1         0     13094         1         0     13097         1         0
     13100         1         0     13103         1         0     13106         1         0
     13110         2         0     13126         2         0     13137         1         0
     13145         1         0     13154         1         0     13157         1         0
     13160         1         0     13163         1         0     13166         1         0
     13169         1         0     13172         1         0     13174         1         0
     13176         1         0     13179         1         0     13182         1         0
     13185         1         0     13188         1         0     13191         1         0
     13194         1         0     13197         1         0     13201         1         0
     13204         1         0     13207         1         0     13210         1         0
     13213         1         0     13216         1         0     13219         1         0
     13221         1         0     13223         1         0     13226         1         0
     13229         1         0     13232         1         0     13235         1         0
     13238         1         0     13241         1         0     13244         1         0
     13248         2         0     13264         2         0     13275         1         0
     13283         1         0     13292         1         0     13295         1         0
     13298         1         0     13301         1         0     13304         1         0
     13307         1         0     13310         1         0     13312         1         0
     13314         1         0     13317         1         0     13320         1         0
     13323         1         0     13326         1         0     13329         1         0
     13332         1         0     13335         1         0     13339         1         0
     13342         1         0     13345         1         0     13348         1         0
     13351         1         0     13354         1         0     13357         1         0
     13359         1         0     13361         1         0     13364         1         0
     13367         1         0     13370         1         0     13373         1         0
     13376         1         0     13379         1         0     13382         1         0
     13386         2         0     13402         2         0     13413         1         0
     13421         1         0     13430         1         0     13433         1         0
     13436         1         0     13439         1         0     13442         1         0
     13445         1         0     13448         1         0     13450         1         0
     13452         1         0     13455         1         0     13458         1         0
     13461         1         0     13464         1         0     13467         1         0
     13470         1         0     13473         1         0     13477         1         0
     13480         1         0     13483         1         0     13486         1         0
     13489         1         0     13492         1         0     13495         1         0
     13497         1         0     13499         1         0     13502         1         0
     13505         1         0     13508         1         0     13511         1         0
     13514         1         0     13517         1         0     13520         1         0
     13524         2         0     13540         2         0     13551         1         0
     13559         1         0     13568         1         0     13571         1         0
     13574         1         0     13577         1         0     13580         1         0
     13583         1         0     13586         1         0     13588         1         0
     13590         1         0     13593         1         0     13596         1         0
     13599         1         0     13602         1         0     13605         1         0
     13608         1         0     13611         1         0     13615         1         0
     13618         1         0     13621         1         0     13624         1         0
     13627         1         0     13630         1         0     13633         1         0
     13635         1         0     13637         1         0     13640         1         0
     13643         1         0     13646         1         0     13649         1         0
     13652         1         0     13655         1         0     13658         1         0
     13662         2         0     13678         2         0     13689         1         0
     13697         1         0     13706         1         0     13709         1         0
     13712         1         0     13715         1         0     13718         1         0
     13721         1         0     13724         1         0     13726         1         0
     13728         1         0     13731         1         0     13734         1         0
     13737         1         0     13740         1         0     13743         1         0
     13746         1         0     13749         1         0     13753         1         0
     13756         1         0     13759         1         0     13762         1         0
     13765         1         0     13768         1         0     13771         1         0
     13773         1         0     13775         1         0     13778         1         0
     13781         1         0     13784         1         0     13787         1         0
     13790         1         0     13793         1         0     13796         1         0
     13800         1         0     13803         1         0     13806         1         0
     13809         1         0     13812         1         0     13815         1         0
     13818         1         0     13821         1         0     13824         1         0
     13827         1         0     13830         1         0     13833         1         0
     13836         1         0     13839         1         0     13842         1         0
     13845         1         0     13848         1         0     13851         1         0
     13854         1         0     13857         1         0     13860         1         0
     13863         1         0     13866         1         0     13869         1         0
     13872         1         0     13875         1         0     13878         1         0
     13881         1         0     13884         1         0     13887         1         0
     13890         1         0     13893         1         0     13896         1         0
     13899         1         0     13902         1         0     13905         1         0
     13908         1         0     13911         1         0     13914         1         0
     13917         1         0     13920         1         0     13923         1         0
     13926         1         0     13929         1         0     13932         1         0
     13935         1         0     13938         1         0     13941         1         0
     13944         1         0     13947         1         0     13950         1         0
     13953         1         0     13956         1         0     13959         1         0
     13962         1         0     13965         1         0     13968         1         0
     13971         1         0     13974         1         0     13977         1         0
     13980         1         0     13983         1         0     13986         1         0
     13989         1         0     13992         1         0     13995         1         0
     13998         1         0     14001         1         0     14004         1         0
     14007         1         0     14010         1         0     14013         1         0
     14016         1         0     14019         1         0     14022         1         0
     14025         1         0     14028         1         0     14031         1         0
     14034         1         0     14037         1         0     14040         1         0
     14043         1         0     14046         1         0     14049         1         0
     14052         1         0     14055         1         0     14058         1         0
     14061         1         0     14064         1         0     14067         1         0
     14070         1         0     14073         1         0     14076         1         0
     14079         1         0     14082         1         0     14085         1         0
     14088         1         0     14091         1         0     14094         1         0
     14097         1         0     14100         1         0     14103         1         0
     14106         1         0     14109         1         0     14112         1         0
     14115         1         0     14118         1         0     14121         1         0
     14124         1         0     14127         1         0     14130         1         0
     14133         1         0     14136         1         0     14139         1         0
     14142         1         0     14145         1         0     14148         1         0
     14151         1         0     14154         1         0     14157         1         0
     14160         1         0     14163         1         0     14166         1         0
     14169         1         0     14172         1         0     14175         1         0
     14178         1         0     14181         1         0     14184         1         0
     14187         1         0     14190         1         0     14193         1         0
     14196         1         0     14199         1         0     14202         1         0
     14205         1         0     14208         1         0     14211         1         0
     14214         1         0     14217         1         0     14220         1         0
     14223         1         0     14226         1         0     14229         1         0
     14232         1         0     14235         1         0     14238         1         0
     14241         1         0     14244         1         0     14247         1         0
     14250         1         0     14253         1         0     14256         1         0
     14259         1         0     14262         1         0     14265         1         0
     14268         1         0     14271         1         0     14274         1         0
     14277         1         0     14280         1         0     14283         1         0
     14286         1         0     14289         1         0     14292         1         0
     14295         1         0     14298         1         0     14301         1         0
     14304         1         0     14307         1         0     14310         1         0
     14313         1         0     14316         1         0     14319         1         0
     14322         1         0     14325         1         0     14328         1         0
     14331         1         0     14334         1         0     14337         1         0
     14340         1         0     14343         1         0     14346         1         0
     14349         1         0     14352         1         0     14355         1         0
     14358         1         0     14361         1         0     14364         1         0
     14367         1         0     14370         1         0     14373         1         0
     14376         1         0     14379         1         0     14382         1         0
     14385         1         0     14388         1         0     14391         1         0
     14394         1         0     14397         1         0     14400         1         0
     14403         1         0     14406         1         0     14409         1         0
     14412         1         0     14415         1         0     14418         1         0
     14421         1         0     14424         1         0     14427         1         0
     14430         1         0     14433         1         0     14436         1         0
     14439         1         0     14442         1         0     14445         1         0
     14448         1         0     14451         1         0     14454         1         0
     14457         1         0     14460         1         0     14463         1         0
     14466         1         0     14469         1         0     14472         1         0
     14475         1         0     14478         1         0     14481         1         0
     14484         1         0     14487         1         0     14490         1         0
     14493         1         0     14496         1         0     14499         1         0
     14502         1         0     14505         1         0     14508         1         0
     14511         1         0     14514         1         0     14517         1         0
     14520         1         0     14523         1         0     14526         1         0
     14529         1         0     14532         1         0     14535         1         0
     14538         1         0     14541         1         0     14544         1         0
     14547         1         0     14550         1         0     14553         1         0
     14556         1         0     14559         1         0     14562         1         0
     14565         1         0     14568         1         0     14571         1         0
     14574         1         0     14577         1         0     14580         1         0
     14583         1         0     14586         1         0     14589         1         0
     14592         1         0     14595         1         0     14598         1         0
     14601         1         0     14604         1         0     14607         1         0
     14610         1         0     14613         1         0     14616         1         0
     14619         1         0     14622         1         0     14625         1         0
     14628         1         0     14631         1         0     14634         1         0
     14637         1         0     14640         1         0     14643         1         0
     14646         1         0     14649         1         0     14652         1         0
     14655         1         0     14658         1         0     14661         1         0
     14664         1         0     14667         1         0     14670         1         0
     14673         1         0     14676         1         0     14679         1         0
     14682         1         0     14685         1         0     14688         1         0
     14691         1         0     14694         1         0     14697         1         0
     14700         1         0     14703         1         0     14706         1         0
     14709         1         0     14712         1         0     14715         1         0
     14718         1         0     14721         1         0     14724         1         0
     14727         1         0     14730         1         0     14733         1         0
     14736         1         0     14739         1         0     14742         1         0
     14745         1         0     14748         1         0     14751         1         0
     14754         1         0     14757         1         0     14760         1         0
     14763         1         0     14766         1         0     14769         1         0
     14772         1         0     14775         1         0     14778         1         0
     14781         1         0     14784         1         0     14787         1         0
     14790         1         0     14793         1         0     14796         1         0
     14799         1         0     14802         1         0     14805         1         0
     14808         1         0     14811         1         0     14814         1         0
     14817         1         0     14820         1         0     14823         1         0
     14826         1         0     14829         1         0     14832         1         0
     14835         1         0     14838         1         0     14841         1         0
     14844         1         0     14847         1         0     14850         1         0
     14853         1         0     14856         1         0     14859         1         0
     14862         1         0     14865         1         0     14868         1         0
     14871         1         0     14874         1         0     14877         1         0
     14880         1         0     14883         1         0     14886         1         0
     14889         1         0     14892         1         0     14895         1         0
     14898         1         0     14901         1         0     14904         1         0
     14907         1         0     14910         1         0     14913         1         0
     14916         1         0     14919         1         0     14922         1         0
     14925         1         0     14928         1         0     14931         1         0
     14934         1         0     14937         1         0     14940         1         0
     14943         1         0     14946         1         0     14949         1         0
     14952         1         0     14955         1         0     14958         1         0
     14961         1         0     14964         1         0     14967         1         0
     14970         1         0     14973         1         0     14976         1         0
     14979         1         0     14982         1         0     14985         1         0
     14988         1         0     14991         1         0     14994         1         0
     14997         1         0     15000         1         0     15003         1         0
     15006         1         0     15009         1         0     15012         1         0
     15015         1         0     15018         1         0     15021         1         0
     15024         1         0     15027         1         0     15030         1         0
     15033         1         0     15036         1         0     15039         1         0
     15042         1         0     15045         1         0     15048         1         0
     15051         1         0     15054         1         0     15057         1         0
     15060         1         0     15063         1         0     15066         1         0
     15069         1         0     15072         1         0     15075         1         0
     15078         1         0     15081         1         0     15084         1         0
     15087         1         0     15090         1         0     15093         1         0
     15096         1         0     15099         1         0     15102         1         0
     15105         1         0     15108         1         0     15111         1         0
     15114         1         0     15117         1         0     15120         1         0
     15123         1         0     15126         1         0     15129         1         0
     15132         1         0     15135         1         0     15138         1         0
     15141         1         0     15144         1         0     15147         1         0
     15150         1         0     15153         1         0     15156         1         0
     15159         1         0     15162         1         0     15165         1         0
     15168         1         0     15171         1         0     15174         1         0
     15177         1         0     15180         1         0     15183         1         0
     15186         1         0     15189         1         0     15192         1         0
     15195         1         0     15198         1         0     15201         1         0
     15204         1         0     15207         1         0     15210         1         0
     15213         1         0     15216         1         0     15219         1         0
     15222         1         0     15225         1         0     15228         1         0
     15231         1         0     15234         1         0     15237         1         0
     15240         1         0     15243         1         0     15246         1         0
     15249         1         0     15252         1         0     15255         1         0
     15258         1         0     15261         1         0     15264         1         0
     15267         1         0     15270         1         0     15273         1         0
     15276         1         0     15279         1         0     15282         1         0
     15285         1         0     15288         1         0     15291         1         0
     15294         1         0     15297         1         0     15300         1         0
     15303         1         0     15306         1         0     15309         1         0
     15312         1         0     15315         1         0     15318         1         0
     15321         1         0     15324         1         0     15327         1         0
     15330         1         0     15333         1         0     15336         1         0
     15339         1         0     15342         1         0     15345         1         0
     15348         1         0     15351         1         0     15354         1         0
     15357         1         0     15360         1         0     15363         1         0
     15366         1         0     15369         1         0     15372         1         0
     15375         1         0     15378         1         0     15381         1         0
     15384         1         0     15387         1         0     15390         1         0
     15393         1         0     15396         1         0     15399         1         0
     15402         1         0     15405         1         0     15408         1         0
     15411         1         0     15414         1         0     15417         1         0
     15420         1         0     15423         1         0     15426         1         0
     15429         1         0     15432         1         0     15435         1         0
     15438         1         0     15441         1         0     15444         1         0
     15447         1         0     15450         1         0     15453         1         0
     15456         1         0     15459         1         0     15462         1         0
     15465         1         0     15468         1         0     15471         1         0
     15474         1         0     15477         1         0     15480         1         0
     15483         1         0     15486         1         0     15489         1         0
     15492         1         0     15495         1         0     15498         1         0
     15501         1         0     15504         1         0     15507         1         0
     15510         1         0     15513         1         0     15516         1         0
     15519         1         0     15522         1         0     15525         1         0
     15528         1         0     15531         1         0     15534         1         0
     15537         1         0     15540         1         0     15543         1         0
     15546         1         0     15549         1         0     15552         1         0
     15555         1         0     15558         1         0     15561         1         0
     15564         1         0     15567         1         0     15570         1         0
     15573         1         0     15576         1         0     15579         1         0
     15582         1         0     15585         1         0     15588         1         0
     15591         1         0     15594         1         0     15597         1         0
     15600         1         0     15603         1         0     15606         1         0
     15609         1         0     15612         1         0     15615         1         0
     15618         1         0     15621         1         0     15624         1         0
     15627         1         0     15630         1         0     15633         1         0
     15636         1         0     15639         1         0     15642         1         0
     15645         1         0     15648         1         0     15651         1         0
     15654         1         0     15657         1         0     15660         1         0
     15663         1         0     15666         1         0     15669         1         0
     15672         1         0     15675         1         0     15678         1         0
     15681         1         0     15684         1         0     15687         1         0
     15690         1         0     15693         1         0     15696         1         0
     15699         1         0     15702         1         0     15705         1         0
     15708         1         0     15711         1         0     15714         1         0
     15717         1         0     15720         1         0     15723         1         0
     15726         1         0     15729         1         0     15732         1         0
     15735         1         0     15738         1         0     15741         1         0
     15744         1         0     15747         1         0     15750         1         0
     15753         1         0     15756         1         0     15759         1         0
     15762         1         0     15765         1         0     15768         1         0
     15771         1         0     15774         1         0     15777         1         0
     15780         1         0     15783         1         0     15786         1         0
     15789         1         0     15792         1         0     15795         1         0
     15798         1         0     15801         1         0     15804         1         0
     15807         1         0     15810         1         0     15813         1         0
     15816         1         0     15819         1         0     15822         1         0
     15825         1         0     15828         1         0     15831         1         0
     15834         1         0     15837         1         0     15840         1         0
     15843         1         0     15846         1         0     15849         1         0
     15852         1         0     15855         1         0     15858         1         0
     15861         1         0     15864         1         0     15867         1         0
     15870         1         0     15873         1         0     15876         1         0
     15879         1         0     15882         1         0     15885         1         0
     15888         1         0     15891         1         0     15894         1         0
     15897         1         0     15900         1         0     15903         1         0
     15906         1         0     15909         1         0     15912         1         0
     15915         1         0     15918         1         0     15921         1         0
     15924         1         0     15927         1         0     15930         1         0
     15933         1         0     15936         1         0     15939         1         0
     15942         1         0     15945         1         0     15948         1         0
     15951         1         0     15954         1         0     15957         1         0
     15960         1         0     15963         1         0     15966         1         0
     15969         1         0     15972         1         0     15975         1         0
     15978         1         0     15981         1         0     15984         1         0
     15987         1         0     15990         1         0     15993         1         0
     15996         1         0     15999         1         0     16002         1         0
     16005         1         0     16008         1         0     16011         1         0
     16014         1         0     16017         1         0     16020         1         0
     16023         1         0     16026         1         0     16029         1         0
     16032         1         0     16035         1         0     16038         1         0
     16041         1         0     16044         1         0     16047         1         0
     16050         1         0     16053         1         0     16056         1         0
     16059         1         0     16062         1         0     16065         1         0
     16068         1         0     16071         1         0     16074         1         0
     16077         1         0     16080         1         0     16083         1         0
     16086         1         0     16089         1         0     16092         1         0
     16095         1         0     16098         1         0     16101         1         0
     16104         1         0     16107         1         0     16110         1         0
     16113         1         0     16116         1         0     16119         1         0
     16122         1         0     16125         1         0     16128         1         0
     16131         1         0     16134         1         0     16137         1         0
     16140         1         0     16143         1         0     16146         1         0
     16149         1         0     16152         1         0     16155         1         0
     16158         1         0     16161         1         0     16164         1         0
     16167         1         0     16170         1         0     16173         1         0
     16176         1         0     16179         1         0     16182         1         0
     16185         1         0     16188         1         0     16191         1         0
     16194         1         0     16197         1         0     16200         1         0
     16203         1         0     16206         1         0     16209         1         0
     16212         1         0     16215         1         0     16218         1         0
     16221         1         0     16224         1         0     16227         1         0
     16230         1         0     16233         1         0     16236         1         0
     16239         1         0     16242         1         0     16245         1         0
     16248         1         0     16251         1         0     16254         1         0
     16257         1         0     16260         1         0     16263         1         0
     16266         1         0     16269         1         0     16272         1         0
     16275         1         0     16278         1         0     16281         1         0
     16284         1         0     16287         1         0     16290         1         0
     16293         1         0     16296         1         0     16299         1         0
     16302         1         0     16305         1         0     16308         1         0
     16311         1         0     16314         1         0     16317         1         0
     16320         1         0     16323         1         0     16326         1         0
     16329         1         0     16332         1         0     16335         1         0
     16338         1         0     16341         1         0     16344         1         0
     16347         1         0     16350         1         0     16353         1         0
     16356         1         0     16359         1         0     16362         1         0
     16365         1         0     16368         1         0     16371         1         0
     16374         1         0     16377         1         0     16380         1         0
     16383         1         0     16386         1         0     16389         1         0
     16392         1         0     16395         1         0     16398         1         0
     16401         1         0     16404         1         0     16407         1         0
     16410         1         0     16413         1         0     16416         1         0
     16419         1         0     16422         1         0     16425         1         0
     16428         1         0     16431         1         0     16434         1         0
     16437         1         0     16440         1         0     16443         1         0
     16446         1         0     16449         1         0     16452         1         0
     16455         1         0     16458         1         0     16461         1         0
     16464         1         0     16467         1         0     16470         1         0
     16473         1         0     16476         1         0     16479         1         0
     16482         1         0     16485         1         0     16488         1         0
     16491         1         0     16494         1         0     16497         1         0
     16500         1         0     16503         1         0     16506         1         0
     16509         1         0     16512         1         0     16515         1         0
     16518         1         0     16521         1         0     16524         1         0
     16527         1         0     16530         1         0     16533         1         0
     16536         1         0     16539         1         0     16542         1         0
     16545         1         0     16548         1         0     16551         1         0
     16554         1         0     16557         1         0     16560         1         0
     16563         1         0     16566         1         0     16569         1         0
     16572         1         0     16575         1         0     16578         1         0
     16581         1         0     16584         1         0     16587         1         0
     16590         1         0     16593         1         0     16596         1         0
     16599         1         0     16602         1         0     16605         1         0
     16608         1         0     16611         1         0     16614         1         0
     16617         1         0     16620         1         0     16623         1         0
     16626         1         0     16629         1         0     16632         1         0
     16635         1         0     16638         1         0     16641         1         0
     16644         1         0     16647         1         0     16650         1         0
     16653         1         0     16656         1         0     16659         1         0
     16662         1         0     16665         1         0     16668         1         0
     16671         1         0     16674         1         0     16677         1         0
     16680         1         0     16683         1         0     16686         1         0
     16689         1         0     16692         1         0     16695         1         0
     16698         1         0     16701         1         0     16704         1         0
     16707         1         0     16710         1         0     16713         1         0
     16716         1         0     16719         1         0     16722         1         0
     16725         1         0     16728         1         0     16731         1         0
     16734         1         0     16737         1         0     16740         1         0
     16743         1         0     16746         1         0     16749         1         0
     16752         1         0     16755         1         0     16758         1         0
     16761         1         0     16764         1         0     16767         1         0
     16770         1         0     16773         1         0     16776         1         0
     16779         1         0     16782         1         0     16785         1         0
     16788         1         0     16791         1         0     16794         1         0
     16797         1         0     16800         1         0     16803         1         0
     16806         1         0     16809         1         0     16812         1         0
     16815         1         0     16818         1         0     16821         1         0
     16824         1         0     16827         1         0     16830         1         0
     16833         1         0     16836         1         0     16839         1         0
     16842         1         0     16845         1         0     16848         1         0
     16851         1         0     16854         1         0     16857         1         0
     16860         1         0     16863         1         0     16866         1         0
     16869         1         0     16872         1         0     16875         1         0
     16878         1         0     16881         1         0     16884         1         0
     16887         1         0     16890         1         0     16893         1         0
     16896         1         0     16899         1         0     16902         1         0
     16905         1         0     16908         1         0     16911         1         0
     16914         1         0     16917         1         0     16920         1         0
     16923         1         0     16926         1         0     16929         1         0
     16932         1         0     16935         1         0     16938         1         0
     16941         1         0     16944         1         0     16947         1         0
     16950         1         0     16953         1         0     16956         1         0
     16959         1         0     16962         1         0     16965         1         0
     16968         1         0     16971         1         0     16974         1         0
     16977         1         0     16980         1         0     16983         1         0
     16986         1         0     16989         1         0     16992         1         0
     16995         1         0     16998         1         0     17001         1         0
     17004         1         0     17007         1         0     17010         1         0
     17013         1         0     17016         1         0     17019         1         0
     17022         1         0     17025         1         0     17028         1         0
     17031         1         0     17034         1         0     17037         1         0
     17040         1         0     17043         1         0     17046         1         0
     17049         1         0     17052         1         0     17055         1         0
     17058         1         0     17061         1         0     17064         1         0
     17067         1         0     17070         1         0     17073         1         0
     17076         1         0     17079         1         0     17082         1         0
     17085         1         0     17088         1         0     17091         1         0
     17094         1         0     17097         1         0     17100         1         0
     17103         1         0     17106         1         0     17109         1         0
     17112         1         0     17115         1         0     17118         1         0
     17121         1         0     17124         1         0     17127         1         0
     17130         1         0     17133         1         0     17136         1         0
     17139         1         0     17142         1         0     17145         1         0
     17148         1         0     17151         1         0     17154         1         0
     17157         1         0     17160         1         0     17163         1         0
     17166         1         0     17169         1         0     17172         1         0
     17175         1         0     17178         1         0     17181         1         0
     17184         1         0     17187         1         0     17190         1         0
     17193         1         0     17196         1         0     17199         1         0
     17202         1         0     17205         1         0     17208         1         0
     17211         1         0     17214         1         0     17217         1         0
     17220         1         0     17223         1         0     17226         1         0
     17229         1         0     17232         1         0     17235         1         0
     17238         1         0     17241         1         0     17244         1         0
     17247         1         0     17250         1         0     17253         1         0
     17256         1         0     17259         1         0     17262         1         0
     17265         1         0     17268         1         0     17271         1         0
     17274         1         0     17277         1         0     17280         1         0
     17283         1         0     17286         1         0     17289         1         0
     17292         1         0     17295         1         0     17298         1         0
     17301         1         0     17304         1         0     17307         1         0
     17310         1         0     17313         1         0     17316         1         0
     17319         1         0     17322         1         0     17325         1         0
     17328         1         0     17331         1         0     17334         1         0
     17337         1         0     17340         1         0     17343         1         0
     17346         1         0     17349         1         0     17352         1         0
     17355         1         0     17358         1         0     17361         1         0
     17364         1         0     17367         1         0     17370         1         0
     17373         1         0     17376         1         0     17379         1         0
     17382         1         0     17385         1         0     17388         1         0
     17391         1         0     17394         1         0     17397         1         0
     17400         1         0     17403         1         0     17406         1         0
     17409         1         0     17412         1         0     17415         1         0
     17418         1         0     17421         1         0     17424         1         0
     17427         1         0     17430         1         0     17433         1         0
     17436         1         0     17439         1         0     17442         1         0
     17445         1         0     17448         1         0     17451         1         0
     17454         1         0     17457         1         0     17460         1         0
     17463         1         0     17466         1         0     17469         1         0
     17472         1         0     17475         1         0     17478         1         0
     17481         1         0     17484         1         0     17487         1         0
     17490         1         0     17493         1         0     17496         1         0
     17499         1         0     17502         1         0     17505         1         0
     17508         1         0     17511         1         0     17514         1         0
     17517         1         0     17520         1         0     17523         1         0
     17526         1         0     17529         1         0     17532         1         0
     17535         1         0     17538         1         0     17541         1         0
     17544         1         0     17547         1         0     17550         1         0
     17553         1         0     17556         1         0     17559         1         0
     17562         1         0     17565         1         0     17568         1         0
     17571         1         0     17574         1         0     17577         1         0
     17580         1         0     17583         1         0     17586         1         0
     17589         1         0     17592         1         0     17595         1         0
     17598         1         0     17601         1         0     17604         1         0
     17607         1         0     17610         1         0     17613         1         0
     17616         1         0     17619         1         0     17622         1         0
     17625         1         0     17628         1         0     17631         1         0
     17634         1         0     17637         1         0     17640         1         0
     17643         1         0     17646         1         0     17649         1         0
     17652         1         0     17655         1         0     17658         1         0
     17661         1         0     17664         1         0     17667         1         0
     17670         1         0     17673         1         0     17676         1         0
     17679         1         0     17682         1         0     17685         1         0
     17688         1         0     17691         1         0     17694         1         0
     17697         1         0     17700         1         0     17703         1         0
     17706         1         0     17709         1         0     17712         1         0
     17715         1         0     17718         1         0     17721         1         0
     17724         1         0     17727         1         0     17730         1         0
     17733         1         0     17736         1         0     17739         1         0
     17742         1         0     17745         1         0     17748         1         0
     17751         1         0     17754         1         0     17757         1         0
     17760         1         0     17763         1         0     17766         1         0
     17769         1         0     17772         1         0     17775         1         0
     17778         1         0     17781         1         0     17784         1         0
     17787         1         0     17790         1         0     17793         1         0
     17796         1         0     17799         1         0     17802         1         0
     17805         1         0     17808         1         0     17811         1         0
     17814         1         0     17817         1         0     17820         1         0
     17823         1         0     17826         1         0     17829         1         0
     17832         1         0     17835         1         0     17838         1         0
     17841         1         0     17844         1         0     17847         1         0
     17850         1         0     17853         1         0     17856         1         0
     17859         1         0     17862         1         0     17865         1         0
     17868         1         0     17871         1         0     17874         1         0
     17877         1         0     17880         1         0     17883         1         0
     17886         1         0     17889         1         0     17892         1         0
     17895         1         0     17898         1         0     17901         1         0
     17904         1         0     17907         1         0     17910         1         0
     17913         1         0     17916         1         0     17919         1         0
     17922         1         0     17925         1         0     17928         1         0
     17931         1         0     17934         1         0     17937         1         0
     17940         1         0     17943         1         0     17946         1         0
     17949         1         0     17952         1         0     17955         1         0
     17958         1         0     17961         1         0     17964         1         0
     17967         1         0     17970         1         0     17973         1         0
     17976         1         0     17979         1         0     17982         1         0
     17985         1         0     17988         1         0     17991         1         0
     17994         1         0     17997         1         0     18000         1         0
     18003         1         0     18006         1         0     18009         1         0
     18012         1         0     18015         1         0     18018         1         0
     18021         1         0     18024         1         0     18027         1         0
     18030         1         0     18033         1         0     18036         1         0
     18039         1         0     18042         1         0     18045         1         0
     18048         1         0     18051         1         0     18054         1         0
     18057         1         0     18060         1         0     18063         1         0
     18066         1         0     18069         1         0     18072         1         0
     18075         1         0     18078         1         0     18081         1         0
     18084         1         0     18087         1         0     18090         1         0
     18093         1         0     18096         1         0     18099         1         0
     18102         1         0     18105         1         0     18108         1         0
     18111         1         0     18114         1         0     18117         1         0
     18120         1         0     18123         1         0     18126         1         0
     18129         1         0     18132         1         0     18135         1         0
     18138         1         0     18141         1         0     18144         1         0
     18147         1         0     18150         1         0     18153         1         0
     18156         1         0     18159         1         0     18162         1         0
     18165         1         0     18168         1         0     18171         1         0
     18174         1         0     18177         1         0     18180         1         0
     18183         1         0     18186         1         0     18189         1         0
     18192         1         0     18195         1         0     18198         1         0
     18201         1         0     18204         1         0     18207         1         0
     18210         1         0     18213         1         0     18216         1         0
     18219         1         0     18222         1         0     18225         1         0
     18228         1         0     18231         1         0     18234         1         0
     18237         1         0     18240         1         0     18243         1         0
     18246         1         0     18249         1         0     18252         1         0
     18255         1         0     18258         1         0     18261         1         0
     18264         1         0     18267         1         0     18270         1         0
     18273         1         0     18276         1         0     18279         1         0
     18282         1         0     18285         1         0     18288         1         0
     18291         1         0     18294         1         0     18297         1         0
     18300         1         0     18303         1         0     18306         1         0
     18309         1         0     18312         1         0     18315         1         0
     18318         1         0     18321         1         0     18324         1         0
     18327         1         0     18330         1         0     18333         1         0
     18336         1         0     18339         1         0     18342         1         0
     18345         1         0     18348         1         0     18351         1         0
     18354         1         0     18357         1         0     18360         1         0
     18363         1         0     18366         1         0     18369         1         0
     18372         1         0     18375         1         0     18378         1         0
     18381         1         0     18384         1         0     18387         1         0
     18390         1         0     18393         1         0     18396         1         0
     18399         1         0     18402         1         0     18405         1         0
     18408         1         0     18411         1         0     18414         1         0
     18417         1         0     18420         1         0     18423         1         0
     18426         1         0     18429         1         0     18432         1         0
     18435         1         0     18438         1         0     18441         1         0
     18444         1         0     18447         1         0     18450         1         0
     18453         1         0     18456         1         0     18459         1         0
     18462         1         0     18465         1         0     18468         1         0
     18471         1         0     18474         1         0     18477         1         0
     18480         1         0     18483         1         0     18486         1         0
     18489         1         0     18492         1         0     18495         1         0
     18498         1         0     18501         1         0     18504         1         0
     18507         1         0     18510         1         0     18513         1         0
     18516         1         0     18519         1         0     18522         1         0
     18525         1         0     18528         1         0     18531         1         0
     18534         1         0     18537         1         0     18540         1         0
     18543         1         0     18546         1         0     18549         1         0
     18552         1         0     18555         1         0     18558         1         0
     18561         1         0     18564         1         0     18567         1         0
     18570         1         0     18573         1         0     18576         1         0
     18579         1         0     18582         1         0     18585         1         0
     18588         1         0     18591         1         0     18594         1         0
     18597         1         0     18600         1         0     18603         1         0
     18606         1         0     18609         1         0     18612         1         0
     18615         1         0     18618         1         0     18621         1         0
     18624         1         0     18627         1         0     18630         1         0
     18633         1         0     18636         1         0     18639         1         0
     18642         1         0     18645         1         0     18648         1         0
     18651         1         0     18654         1         0     18657         1         0
     18660         1         0     18663         1         0     18666         1         0
     18669         1         0     18672         1         0     18675         1         0
     18678         1         0     18681         1         0     18684         1         0
     18687         1         0     18690         1         0     18693         1         0
     18696         1         0     18699         1         0     18702         1         0
     18705         1         0     18708         1         0     18711         1         0
     18714         1         0     18717         1         0     18720         1         0
     18723         1         0     18726         1         0     18729         1         0
     18732         1         0     18735         1         0     18738         1         0
     18741         1         0     18744         1         0     18747         1         0
     18750         1         0     18753         1         0     18756         1         0
     18759         1         0     18762         1         0     18765         1         0
     18768         1         0     18771         1         0     18774         1         0
     18777         1         0     18780         1         0     18783         1         0
     18786         1         0     18789         1         0     18792         1         0
     18795         1         0     18798         1         0     18801         1         0
     18804         1         0     18807         1         0     18810         1         0
     18813         1         0     18816         1         0     18819         1         0
     18822         1         0     18825         1         0     18828         1         0
     18831         1         0     18834         1         0     18837         1         0
     18840         1         0     18843         1         0     18846         1         0
     18849         1         0     18852         1         0     18855         1         0
     18858         1         0     18861         1         0     18864         1         0
     18867         1         0     18870         1         0     18873         1         0
     18876         1         0     18879         1         0     18882         1         0
     18885         1         0     18888         1         0     18891         1         0
     18894         1         0     18897         1         0     18900         1         0
     18903         1         0     18906         1         0     18909         1         0
     18912         1         0     18915         1         0     18918         1         0
     18921         1         0     18924         1         0     18927         1         0
     18930         1         0     18933         1         0     18936         1         0
     18939         1         0     18942         1         0     18945         1         0
     18948         1         0     18951         1         0     18954         1         0
     18957         1         0     18960         1         0     18963         1         0
     18966         1         0     18969         1         0     18972         1         0
     18975         1         0     18978         1         0     18981         1         0
     18984         1         0     18987         1         0     18990         1         0
     18993         1         0     18996         1         0     18999         1         0
     19002         1         0     19005         1         0     19008         1         0
     19011         1         0     19014         1         0     19017         1         0
     19020         1         0     19023         1         0     19026         1         0
     19029         1         0     19032         1         0     19035         1         0
     19038         1         0     19041         1         0     19044         1         0
     19047         1         0     19050         1         0     19053         1         0
     19056         1         0     19059         1         0     19062         1         0
     19065         1         0     19068         1         0     19071         1         0
     19074         1         0     19077         1         0     19080         1         0
     19083         1         0     19086         1         0     19089         1         0
     19092         1         0     19095         1         0     19098         1         0
     19101         1         0     19104         1         0     19107         1         0
     19110         1         0     19113         1         0     19116         1         0
     19119         1         0     19122         1         0     19125         1         0
     19128         1         0     19131         1         0     19134         1         0
     19137         1         0     19140         1         0     19143         1         0
     19146         1         0     19149         1         0     19152         1         0
     19155         1         0     19158         1         0     19161         1         0
     19164         1         0     19167         1         0     19170         1         0
     19173         1         0     19176         1         0     19179         1         0
     19182         1         0     19185         1         0     19188         1         0
     19191         1         0     19194         1         0     19197         1         0
     19200         1         0     19203         1         0     19206         1         0
     19209         1         0     19212         1         0     19215         1         0
     19218         1         0     19221         1         0     19224         1         0
     19227         1         0     19230         1         0     19233         1         0
     19236         1         0     19239         1         0     19242         1         0
     19245         1         0     19248         1         0     19251         1         0
     19254         1         0     19257         1         0     19260         1         0
     19263         1         0     19266         1         0     19269         1         0
     19272         1         0     19275         1         0     19278         1         0
     19281         1         0     19284         1         0     19287         1         0
     19290         1         0     19293         1         0     19296         1         0
     19299         1         0     19302         1         0     19305         1         0
     19308         1         0     19311         1         0     19314         1         0
     19317         1         0     19320         1         0     19323         1         0
     19326         1         0     19329         1         0     19332         1         0
     19335         1         0     19338         1         0     19341         1         0
     19344         1         0     19347         1         0     19350         1         0
     19353         1         0     19356         1         0     19359         1         0
     19362         1         0     19365         1         0     19368         1         0
     19371         1         0     19374         1         0     19377         1         0
     19380         1         0     19383         1         0     19386         1         0
     19389         1         0     19392         1         0     19395         1         0
     19398         1         0     19401         1         0     19404         1         0
     19407         1         0     19410         1         0     19413         1         0
     19416         1         0     19419         1         0     19422         1         0
     19425         1         0     19428         1         0     19431         1         0
     19434         1         0     19437         1         0     19440         1         0
     19443         1         0     19446         1         0     19449         1         0
     19452         1         0     19455         1         0     19458         1         0
     19461         1         0     19464         1         0     19467         1         0
     19470         1         0     19473         1         0     19476         1         0
     19479         1         0     19482         1         0     19485         1         0
     19488         1         0     19491         1         0     19494         1         0
     19497         1         0     19500         1         0     19503         1         0
     19506         1         0     19509         1         0     19512         1         0
     19515         1         0     19518         1         0     19521         1         0
     19524         1         0     19527         1         0     19530         1         0
     19533         1         0     19536         1         0     19539         1         0
     19542         1         0     19545         1         0     19548         1         0
     19551         1         0     19554         1         0     19557         1         0
     19560         1         0     19563         1         0     19566         1         0
     19569         1         0     19572         1         0     19575         1         0
     19578         1         0     19581         1         0     19584         1         0
     19587         1         0     19590         1         0     19593         1         0
     19596         1         0     19599         1         0     19602         1         0
     19605         1         0     19608         1         0     19611         1         0
     19614         1         0     19617         1         0     19620         1         0
     19623         1         0     19626         1         0     19629         1         0
     19632         1         0     19635         1         0     19638         1         0
     19641         1         0     19644         1         0     19647         1         0
     19650         1         0     19653         1         0     19656         1         0
     19659         1         0     19662         1         0     19665         1         0
     19668         1         0     19671         1         0     19674         1         0
     19677         1         0     19680         1         0     19683         1         0
     19686         1         0     19689         1         0     19692         1         0
     19695         1         0     19698         1         0     19701         1         0
     19704         1         0     19707         1         0     19710         1         0
     19713         1         0     19716         1         0     19719         1         0
     19722         1         0     19725         1         0     19728         1         0
     19731         1         0     19734         1         0     19737         1         0
     19740         1         0     19743         1         0     19746         1         0
     19749         1         0     19752         1         0     19755         1         0
     19758         1         0     19761         1         0     19764         1         0
     19767         1         0     19770         1         0     19773         1         0
     19776         1         0     19779         1         0     19782         1         0
     19785         1         0     19788         1         0     19791         1         0
     19794         1         0     19797         1         0     19800         1         0
     19803         1         0     19806         1         0     19809         1         0
     19812         1         0     19815         1         0     19818         1         0
     19821         1         0     19824         1         0     19827         1         0
     19830         1         0     19833         1         0     19836         1         0
     19839         1         0     19842         1         0     19845         1         0
     19848         1         0     19851         1         0     19854         1         0
     19857         1         0     19860         1         0     19863         1         0
     19866         1         0     19869         1         0     19872         1         0
     19875         1         0     19878         1         0     19881         1         0
     19884         1         0     19887         1         0     19890         1         0
     19893         1         0     19896         1         0     19899         1         0
     19902         1         0     19905         1         0     19908         1         0
     19911         1         0     19914         1         0     19917         1         0
     19920         1         0     19923         1         0     19926         1         0
     19929         1         0     19932         1         0     19935         1         0
     19938         1         0     19941         1         0     19944         1         0
     19947         1         0     19950         1         0     19953         1         0
     19956         1         0     19959         1         0     19962         1         0
     19965         1         0     19968         1         0     19971         1         0
     19974         1         0     19977         1         0     19980         1         0
     19983         1         0     19986         1         0     19989         1         0
     19992         1         0     19995         1         0     19998         1         0
     20001         1         0     20004         1         0     20007         1         0
     20010         1         0     20013         1         0     20016         1         0
     20019         1         0     20022         1         0     20025         1         0
     20028         1         0     20031         1         0     20034         1         0
     20037         1         0     20040         1         0     20043         1         0
     20046         1         0     20049         1         0     20052         1         0
     20055         1         0     20058         1         0     20061         1         0
     20064         1         0     20067         1         0     20070         1         0
     20073         1         0     20076         1         0     20079         1         0
     20082         1         0     20085         1         0     20088         1         0
     20091         1         0     20094         1         0     20097         1         0
     20100         1         0     20103         1         0     20106         1         0
     20109         1         0     20112         1         0     20115         1         0
     20118         1         0     20121         1         0     20124         1         0
     20127         1         0     20130         1         0     20133         1         0
     20136         1         0     20139         1         0     20142         1         0
     20145         1         0     20148         1         0     20151         1         0
     20154         1         0     20157         1         0     20160         1         0
     20163         1         0     20166         1         0     20169         1         0
     20172         1         0     20175         1         0     20178         1         0
     20181         1         0     20184         1         0     20187         1         0
     20190         1         0     20193         1         0     20196         1         0
     20199         1         0     20202         1         0     20205         1         0
     20208         1         0     20211         1         0     20214         1         0
     20217         1         0     20220         1         0     20223         1         0
     20226         1         0     20229         1         0     20232         1         0
     20235         1         0     20238         1         0     20241         1         0
     20244         1         0     20247         1         0     20250         1         0
     20253         1         0     20256         1         0     20259         1         0
     20262         1         0     20265         1         0     20268         1         0
     20271         1         0     20274         1         0     20277         1         0
     20280         1         0     20283         1         0     20286         1         0
     20289         1         0     20292         1         0     20295         1         0
     20298         1         0     20301         1         0     20304         1         0
     20307         1         0     20310         1         0     20313         1         0
     20316         1         0     20319         1         0     20322         1         0
     20325         1         0     20328         1         0     20331         1         0
     20334         1         0     20337         1         0     20340         1         0
     20343         1         0     20346         1         0     20349         1         0
     20352         1         0     20355         1         0     20358         1         0
     20361         1         0     20364         1         0     20367         1         0
     20370         1         0     20373         1         0     20376         1         0
     20379         1         0     20382         1         0     20385         1         0
     20388         1         0     20391         1         0     20394         1         0
     20397         1         0     20400         1         0     20403         1         0
     20406         1         0     20409         1         0     20412         1         0
     20415         1         0     20418         1         0     20421         1         0
     20424         1         0     20427         1         0     20430         1         0
     20433         1         0     20436         1         0     20439         1         0
     20442         1         0     20445         1         0     20448         1         0
     20451         1         0     20454         1         0     20457         1         0
     20460         1         0     20463         1         0     20466         1         0
     20469         1         0     20472         1         0     20475         1         0
     20478         1         0     20481         1         0     20484         1         0
     20487         1         0     20490         1         0     20493         1         0
     20496         1         0     20499         1         0     20502         1         0
     20505         1         0     20508         1         0     20511         1         0
     20514         1         0     20517         1         0     20520         1         0
     20523         1         0     20526         1         0     20529         1         0
     20532         1         0     20535         1         0     20538         1         0
     20541         1         0     20544         1         0     20547         1         0
     20550         1         0     20553         1         0     20556         1         0
     20559         1         0     20562         1         0     20565         1         0
     20568         1         0     20571         1         0     20574         1         0
     20577         1         0     20580         1         0     20583         1         0
     20586         1         0     20589         1         0     20592         1         0
     20595         1         0     20598         1         0     20601         1         0
     20604         1         0     20607         1         0     20610         1         0
     20613         1         0     20616         1         0     20619         1         0
     20622         1         0     20625         1         0     20628         1         0
     20631         1         0     20634         1         0     20637         1         0
     20640         1         0     20643         1         0     20646         1         0
     20649         1         0     20652         1         0     20655         1         0
     20658         1         0     20661         1         0     20664         1         0
     20667         1         0     20670         1         0     20673         1         0
     20676         1         0     20679         1         0     20682         1         0
     20685         1         0     20688         1         0     20691         1         0
     20694         1         0     20697         1         0     20700         1         0
     20703         1         0     20706         1         0     20709         1         0
     20712         1         0     20715         1         0     20718         1         0
     20721         1         0     20724         1         0     20727         1         0
     20730         1         0     20733         1         0     20736         1         0
     20739         1         0     20742         1         0     20745         1         0
     20748         1         0     20751         1         0     20754         1         0
     20757         1         0     20760         1         0     20763         1         0
     20766         1         0     20769         1         0     20772         1         0
     20775         1         0     20778         1         0     20781         1         0
     20784         1         0     20787         1         0     20790         1         0
     20793         1         0     20796         1         0     20799         1         0
     20802         1         0     20805         1         0     20808         1         0
     20811         1         0     20814         1         0     20817         1         0
     20820         1         0     20823         1         0     20826         1         0
     20829         1         0     20832         1         0     20835         1         0
     20838         1         0     20841         1         0     20844         1         0
     20847         1         0     20850         1         0     20853         1         0
     20856         1         0     20859         1         0     20862         1         0
     20865         1         0     20868         1         0     20871         1         0
     20874         1         0     20877         1         0     20880         1         0
     20883         1         0     20886         1         0     20889         1         0
     20892         1         0     20895         1         0     20898         1         0
     20901         1         0     20904         1         0     20907         1         0
     20910         1         0     20913         1         0     20916         1         0
     20919         1         0     20922         1         0     20925         1         0
     20928         1         0     20931         1         0     20934         1         0
     20937         1         0     20940         1         0     20943         1         0
     20946         1         0     20949         1         0     20952         1         0
     20955         1         0     20958         1         0     20961         1         0
     20964         1         0     20967         1         0     20970         1         0
     20973         1         0     20976         1         0     20979         1         0
     20982         1         0     20985         1         0     20988         1         0
     20991         1         0     20994         1         0     20997         1         0
     21000         1         0     21003         1         0     21006         1         0
     21009         1         0     21012         1         0     21015         1         0
     21018         1         0     21021         1         0     21024         1         0
     21027         1         0     21030         1         0     21033         1         0
     21036         1         0     21039         1         0     21042         1         0
     21045         1         0     21048         1         0     21051         1         0
     21054         1         0     21057         1         0     21060         1         0
     21063         1         0     21066         1         0     21069         1         0
     21072         1         0     21075         1         0     21078         1         0
     21081         1         0     21084         1         0     21087         1         0
     21090         1         0     21093         1         0     21096         1         0
     21099         1         0     21102         1         0     21105         1         0
     21108         1         0     21111         1         0     21114         1         0
     21117         1         0     21120         1         0     21123         1         0
     21126         1         0     21129         1         0     21132         1         0
     21135         1         0     21138         1         0     21141         1         0
     21144         1         0     21147         1         0     21150         1         0
     21153         1         0     21156         1         0     21159         1         0
     21162         1         0     21165         1         0     21168         1         0
     21171         1         0     21174         1         0     21177         1         0
     21180         1         0     21183         1         0     21186         1         0
     21189         1         0     21192         1         0     21195         1         0
     21198         1         0     21201         1         0     21204         1         0
     21207         1         0     21210         1         0     21213         1         0
     21216         1         0     21219         1         0     21222         1         0
     21225         1         0     21228         1         0     21231         1         0
     21234         1         0     21237         1         0     21240         1         0
     21243         1         0     21246         1         0     21249         1         0
     21252         1         0     21255         1         0     21258         1         0
     21261         1         0     21264         1         0     21267         1         0
     21270         1         0     21273         1         0     21276         1         0
     21279         1         0     21282         1         0     21285         1         0
     21288         1         0     21291         1         0     21294         1         0
     21297         1         0     21300         1         0     21303         1         0
     21306         1         0     21309         1         0     21312         1         0
     21315         1         0     21318         1         0     21321         1         0
     21324         1         0     21327         1         0     21330         1         0
     21333         1         0     21336         1         0     21339         1         0
     21342         1         0     21345         1         0     21348         1         0
     21351         1         0     21354         1         0     21357         1         0
     21360         1         0     21363         1         0     21366         1         0
     21369         1         0     21372         1         0     21375         1         0
     21378         1         0     21381         1         0     21384         1         0
     21387         1         0     21390         1         0     21393         1         0
     21396         1         0     21399         1         0     21402         1         0
     21405         1         0     21408         1         0     21411         1         0
     21414         1         0     21417         1         0     21420         1         0
     21423         1         0     21426         1         0     21429         1         0
     21432         1         0     21435         1         0     21438         1         0
     21441         1         0     21444         1         0     21447         1         0
     21450         1         0     21453         1         0     21456         1         0
     21459         1         0     21462         1         0     21465         1         0
     21468         1         0     21471         1         0     21474         1         0
     21477         1         0     21480         1         0     21483         1         0
     21486         1         0     21489         1         0     21492         1         0
     21495         1         0     21498         1         0     21501         1         0
     21504         1         0     21507         1         0     21510         1         0
     21513         1         0     21516         1         0     21519         1         0
     21522         1         0     21525         1         0     21528         1         0
     21531         1         0     21534         1         0     21537         1         0
     21540         1         0     21543         1         0     21546         1         0
     21549         1         0     21552         1         0     21555         1         0
     21558         1         0     21561         1         0     21564         1         0
     21567         1         0     21570         1         0     21573         1         0
     21576         1         0     21579         1         0     21582         1         0
     21585         1         0     21588         1         0     21591         1         0
     21594         1         0     21597         1         0     21600         1         0
     21603         1         0     21606         1         0     21609         1         0
     21612         1         0     21615         1         0     21618         1         0
     21621         1         0     21624         1         0     21627         1         0
     21630         1         0     21633         1         0     21636         1         0
     21639         1         0     21642         1         0     21645         1         0
     21648         1         0     21651         1         0     21654         1         0
     21657         1         0     21660         1         0     21663         1         0
     21666         1         0     21669         1         0     21672         1         0
     21675         1         0     21678         1         0     21681         1         0
     21684         1         0     21687         1         0     21690         1         0
     21693         1         0     21696         1         0     21699         1         0
     21702         1         0     21705         1         0     21708         1         0
     21711         1         0     21714         1         0     21717         1         0
     21720         1         0     21723         1         0     21726         1         0
     21729         1         0     21732         1         0     21735         1         0
     21738         1         0     21741         1         0     21744         1         0
     21747         1         0     21750         1         0     21753         1         0
     21756         1         0     21759         1         0     21762         1         0
     21765         1         0     21768         1         0     21771         1         0
     21774         1         0     21777         1         0     21780         1         0
     21783         1         0     21786         1         0     21789         1         0
     21792         1         0     21795         1         0     21798         1         0
     21801         1         0     21804         1         0     21807         1         0
     21810         1         0     21813         1         0     21816         1         0
     21819         1         0     21822         1         0     21825         1         0
     21828         1         0     21831         1         0     21834         1         0
     21837         1         0     21840         1         0     21843         1         0
     21846         1         0     21849         1         0     21852         1         0
     21855         1         0     21858         1         0     21861         1         0
     21864         1         0     21867         1         0     21870         1         0
     21873         1         0     21876         1         0     21879         1         0
     21882         1         0     21885         1         0     21888         1         0
     21891         1         0     21894         1         0     21897         1         0
     21900         1         0     21903         1         0     21906         1         0
     21909         1         0     21912         1         0     21915         1         0
     21918         1         0     21921         1         0     21924         1         0
     21927         1         0     21930         1         0     21933         1         0
     21936         1         0     21939         1         0     21942         1         0
     21945         1         0     21948         1         0     21951         1         0
     21954         1         0     21957         1         0     21960         1         0
     21963         1         0     21966         1         0     21969         1         0
     21972         1         0     21975         1         0     21978         1         0
     21981         1         0     21984         1         0     21987         1         0
     21990         1         0     21993         1         0     21996         1         0
     21999         1         0     22002         1         0     22005         1         0
     22008         1         0     22011         1         0     22014         1         0
     22017         1         0     22020         1         0     22023         1         0
     22026         1         0     22029         1         0     22032         1         0
     22035         1         0     22038         1         0     22041         1         0
     22044         1         0     22047         1         0     22050         1         0
     22053         1         0     22056         1         0     22059         1         0
     22062         1         0     22065         1         0     22068         1         0
     22071         1         0     22074         1         0     22077         1         0
     22080         1         0     22083         1         0     22086         1         0
     22089         1         0     22092         1         0     22095         1         0
     22098         1         0     22101         1         0     22104         1         0
     22107         1         0     22110         1         0     22113         1         0
     22116         1         0     22119         1         0     22122         1         0
     22125         1         0     22128         1         0     22131         1         0
     22134         1         0     22137         1         0     22140         1         0
     22143         1         0     22146         1         0     22149         1         0
     22152         1         0     22155         1         0     22158         1         0
     22161         1         0     22164         1         0     22167         1         0
     22170         1         0     22173         1         0     22176         1         0
     22179         1         0     22182         1         0     22185         1         0
     22188         1         0     22191         1         0     22194         1         0
     22197         1         0     22200         1         0     22203         1         0
     22206         1         0     22209         1         0     22212         1         0
     22215         1         0     22218         1         0     22221         1         0
     22224         1         0     22227         1         0     22230         1         0
     22233         1         0     22236         1         0     22239         1         0
     22242         1         0     22245         1         0     22248         1         0
     22251         1         0     22254         1         0     22257         1         0
     22260         1         0     22263         1         0     22266         1         0
     22269         1         0     22272         1         0     22275         1         0
     22278         1         0     22281         1         0     22284         1         0
     22287         1         0     22290         1         0     22293         1         0
     22296         1         0     22299         1         0     22302         1         0
     22305         1         0     22308         1         0     22311         1         0
     22314         1         0     22317         1         0     22320         1         0
     22323         1         0     22326         1         0     22329         1         0
     22332         1         0     22335         1         0     22338         1         0
     22341         1         0     22344         1         0     22347         1         0
     22350         1         0     22353         1         0     22356         1         0
     22359         1         0     22362         1         0     22365         1         0
     22368         1         0     22371         1         0     22374         1         0
     22377         1         0     22380         1         0     22383         1         0
     22386         1         0     22389         1         0     22392         1         0
     22395         1         0     22398         1         0     22401         1         0
     22404         1         0     22407         1         0     22410         1         0
     22413         1         0     22416         1         0     22419         1         0
     22422         1         0     22425         1         0     22428         1         0
     22431         1         0     22434         1         0     22437         1         0
     22440         1         0     22443         1         0     22446         1         0
     22449         1         0     22452         1         0     22455         1         0
     22458         1         0     22461         1         0     22464         1         0
     22467         1         0     22470         1         0     22473         1         0
     22476         1         0     22479         1         0     22482         1         0
     22485         1         0     22488         1         0     22491         1         0
     22494         1         0     22497         1         0     22500         1         0
     22503         1         0     22506         1         0     22509         1         0
     22512         1         0     22515         1         0     22518         1         0
     22521         1         0     22524         1         0     22527         1         0
     22530         1         0     22533         1         0     22536         1         0
     22539         1         0     22542         1         0     22545         1         0
     22548         1         0     22551         1         0     22554         1         0
     22557         1         0     22560         1         0     22563         1         0
     22566         1         0     22569         1         0     22572         1         0
     22575         1         0     22578         1         0     22581         1         0
     22584         1         0     22587         1         0     22590         1         0
     22593         1         0     22596         1         0     22599         1         0
     22602         1         0     22605         1         0     22608         1         0
     22611         1         0     22614         1         0     22617         1         0
     22620         1         0     22623         1         0     22626         1         0
     22629         1         0     22632         1         0     22635         1         0
     22638         1         0     22641         1         0     22644         1         0
     22647         1         0     22650         1         0     22653         1         0
     22656         1         0     22659         1         0     22662         1         0
     22665         1         0     22668         1         0     22671         1         0
     22674         1         0     22677         1         0     22680         1         0
     22683         1         0     22686         1         0     22689         1         0
     22692         1         0     22695         1         0     22698         1         0
     22701         1         0     22704         1         0     22707         1         0
     22710         1         0     22713         1         0     22716         1         0
     22719         1         0     22722         1         0     22725         1         0
     22728         1         0     22731         1         0     22734         1         0
     22737         1         0     22740         1         0     22743         1         0
     22746         1         0     22749         1         0     22752         1         0
     22755         1         0     22758         1         0     22761         1         0
     22764         1         0     22767         1         0     22770         1         0
     22773         1         0     22776         1         0     22779         1         0
     22782         1         0     22785         1         0     22788         1         0
     22791         1         0     22794         1         0     22797         1         0
     22800         1         0     22803         1         0     22806         1         0
     22809         1         0     22812         1         0     22815         1         0
     22818         1         0     22821         1         0     22824         1         0
     22827         1         0     22830         1         0     22833         1         0
     22836         1         0     22839         1         0     22842         1         0
     22845         1         0     22848         1         0     22851         1         0
     22854         1         0     22857         1         0     22860         1         0
     22863         1         0     22866         1         0     22869         1         0
     22872         1         0     22875         1         0     22878         1         0
     22881         1         0     22884         1         0     22887         1         0
     22890         1         0     22893         1         0     22896         1         0
     22899         1         0     22902         1         0     22905         1         0
     22908         1         0     22911         1         0     22914         1         0
     22917         1         0     22920         1         0     22923         1         0
     22926         1         0     22929         1         0     22932         1         0
     22935         1         0     22938         1         0     22941         1         0
     22944         1         0     22947         1         0     22950         1         0
     22953         1         0     22956         1         0     22959         1         0
     22962         1         0     22965         1         0     22968         1         0
     22971         1         0     22974         1         0     22977         1         0
     22980         1         0     22983         1         0     22986         1         0
     22989         1         0     22992         1         0     22995         1         0
     22998         1         0     23001         1         0     23004         1         0
     23007         1         0     23010         1         0     23013         1         0
     23016         1         0     23019         1         0     23022         1         0
     23025         1         0     23028         1         0     23031         1         0
     23034         1         0     23037         1         0     23040         1         0
     23043         1         0     23046         1         0     23049         1         0
     23052         1         0     23055         1         0     23058         1         0
     23061         1         0     23064         1         0     23067         1         0
     23070         1         0     23073         1         0     23076         1         0
     23079         1         0     23082         1         0     23085         1         0
     23088         1         0     23091         1         0     23094         1         0
     23097         1         0     23100         1         0     23103         1         0
     23106         1         0     23109         1         0     23112         1         0
     23115         1         0     23118         1         0     23121         1         0
     23124         1         0     23127         1         0     23130         1         0
     23133         1         0     23136         1         0     23139         1         0
     23142         1         0     23145         1         0     23148         1         0
     23151         1         0     23154         1         0     23157         1         0
     23160         1         0     23163         1         0     23166         1         0
     23169         1         0     23172         1         0     23175         1         0
     23178         1         0     23181         1         0     23184         1         0
     23187         1         0     23190         1         0     23193         1         0
     23196         1         0     23199         1         0     23202         1         0
     23205         1         0     23208         1         0     23211         1         0
     23214         1         0     23217         1         0     23220         1         0
     23223         1         0     23226         1         0     23229         1         0
     23232         1         0     23235         1         0     23238         1         0
     23241         1         0     23244         1         0     23247         1         0
     23250         1         0     23253         1         0     23256         1         0
     23259         1         0     23262         1         0     23265         1         0
     23268         1         0     23271         1         0     23274         1         0
     23277         1         0     23280         1         0     23283         1         0
     23286         1         0     23289         1         0     23292         1         0
     23295         1         0     23298         1         0     23301         1         0
     23304         1         0     23307         1         0     23310         1         0
     23313         1         0     23316         1         0     23319         1         0
     23322         1         0     23325         1         0     23328         1         0
     23331         1         0     23334         1         0     23337         1         0
     23340         1         0     23343         1         0     23346         1         0
     23349         1         0     23352         1         0     23355         1         0
     23358         1         0     23361         1         0     23364         1         0
     23367         1         0     23370         1         0     23373         1         0
     23376         1         0     23379         1         0     23382         1         0
     23385         1         0     23388         1         0     23391         1         0
     23394         1         0     23397         1         0     23400         1         0
     23403         1         0     23406         1         0     23409         1         0
     23412         1         0     23415         1         0     23418         1         0
     23421         1         0     23424         1         0     23427         1         0
     23430         1         0     23433         1         0     23436         1         0
     23439         1         0     23442         1         0     23445         1         0
     23448         1         0     23451         1         0     23454         1         0
     23457         1         0     23460         1         0     23463         1         0
     23466         1         0     23469         1         0     23472         1         0
     23475         1         0     23478         1         0     23481         1         0
     23484         1         0     23487         1         0     23490         1         0
     23493         1         0     23496         1         0     23499         1         0
     23502         1         0     23505         1         0     23508         1         0
     23511         1         0     23514         1         0     23517         1         0
     23520         1         0     23523         1         0     23526         1         0
     23529         1         0     23532         1         0     23535         1         0
     23538         1         0     23541         1         0     23544         1         0
     23547         1         0     23550         1         0     23553         1         0
     23556         1         0     23559         1         0     23562         1         0
     23565         1         0     23568         1         0     23571         1         0
     23574         1         0     23577         1         0     23580         1         0
     23583         1         0     23586         1         0     23589         1         0
     23592         1         0     23595         1         0     23598         1         0
     23601         1         0     23604         1         0     23607         1         0
     23610         1         0     23613         1         0     23616         1         0
     23619         1         0     23622         1         0     23625         1         0
     23628         1         0     23631         1         0     23634         1         0
     23637         1         0     23640         1         0     23643         1         0
     23646         1         0     23649         1         0     23652         1         0
     23655         1         0     23658         1         0     23661         1         0
     23664         1         0     23667         1         0     23670         1         0
     23673         1         0     23676         1         0     23679         1         0
     23682         1         0     23685         1         0     23688         1         0
     23691         1         0     23694         1         0     23697         1         0
     23700         1         0     23703         1         0     23706         1         0
     23709         1         0     23712         1         0     23715         1         0
     23718         1         0     23721         1         0     23724         1         0
     23727         1         0     23730         1         0     23733         1         0
     23736         1         0     23739         1         0     23742         1         0
     23745         1         0     23748         1         0     23751         1         0
     23754         1         0     23757         1         0     23760         1         0
     23763         1         0     23766         1         0     23769         1         0
     23772         1         0     23775         1         0     23778         1         0
     23781         1         0     23784         1         0     23787         1         0
     23790         1         0     23793         1         0     23796         1         0
     23799         1         0     23802         1         0     23805         1         0
     23808         1         0     23811         1         0     23814         1         0
     23817         1         0     23820         1         0     23823         1         0
     23826         1         0     23829         1         0     23832         1         0
     23835         1         0     23838         1         0     23841         1         0
     23844         1         0     23847         1         0     23850         1         0
     23853         1         0     23856         1         0     23859         1         0
     23862         1         0     23865         1         0     23868         1         0
     23871         1         0     23874         1         0     23877         1         0
     23880         1         0     23883         1         0     23886         1         0
     23889         1         0     23892         1         0     23895         1         0
     23898         1         0     23901         1         0     23904         1         0
     23907         1         0     23910         1         0     23913         1         0
     23916         1         0     23919         1         0     23922         1         0
     23925         1         0     23928         1         0     23931         1         0
     23934         1         0     23937         1         0     23940         1         0
     23943         1         0     23946         1         0     23949         1         0
     23952         1         0     23955         1         0     23958         1         0
     23961         1         0     23964         1         0     23967         1         0
     23970         1         0     23973         1         0     23976         1         0
     23979         1         0     23982         1         0     23985         1         0
     23988         1         0     23991         1         0     23994         1         0
     23997         1         0     24000         1         0     24003         1         0
     24006         1         0     24009         1         0     24012         1         0
     24015         1         0     24018         1         0     24021         1         0
     24024         1         0     24027         1         0     24030         1         0
     24033         1         0     24036         1         0     24039         1         0
     24042         1         0     24045         1         0     24048         1         0
     24051         1         0     24054         1         0     24057         1         0
     24060         1         0     24063         1         0     24066         1         0
     24069         1         0     24072         1         0     24075         1         0
     24078         1         0     24081         1         0     24084         1         0
     24087         1         0     24090         1         0     24093         1         0
     24096         1         0     24099         1         0     24102         1         0
     24105         1         0     24108         1         0     24111         1         0
     24114         1         0     24117         1         0     24120         1         0
     24123         1         0     24126         1         0     24129         1         0
     24132         1         0     24135         1         0     24138         1         0
     24141         1         0     24144         1         0     24147         1         0
     24150         1         0     24153         1         0     24156         1         0
     24159         1         0     24162         1         0     24165         1         0
     24168         1         0     24171         1         0     24174         1         0
     24177         1         0     24180         1         0     24183         1         0
     24186         1         0     24189         1         0     24192         1         0
     24195         1         0     24198         1         0     24201         1         0
     24204         1         0     24207         1         0     24210         1         0
     24213         1         0     24216         1         0     24219         1         0
     24222         1         0     24225         1         0     24228         1         0
     24231         1         0     24234         1         0     24237         1         0
     24240         1         0     24243         1         0     24246         1         0
     24249         1         0     24252         1         0     24255         1         0
     24258         1         0     24261         1         0     24264         1         0
     24267         1         0     24270         1         0     24273         1         0
     24276         1         0     24279         1         0     24282         1         0
     24285         1         0     24288         1         0     24291         1         0
     24294         1         0     24297         1         0     24300         1         0
     24303         1         0     24306         1         0     24309         1         0
     24312         1         0     24315         1         0     24318         1         0
     24321         1         0     24324         1         0     24327         1         0
     24330         1         0     24333         1         0     24336         1         0
     24339         1         0     24342         1         0     24345         1         0
     24348         1         0     24351         1         0     24354         1         0
     24357         1         0     24360         1         0     24363         1         0
     24366         1         0     24369         1         0     24372         1         0
     24375         1         0     24378         1         0     24381         1         0
     24384         1         0     24387         1         0     24390         1         0
     24393         1         0     24396         1         0     24399         1         0
     24402         1         0     24405         1         0     24408         1         0
     24411         1         0     24414         1         0     24417         1         0
     24420         1         0     24423         1         0     24426         1         0
     24429         1         0     24432         1         0     24435         1         0
     24438         1         0     24441         1         0     24444         1         0
     24447         1         0     24450         1         0     24453         1         0
     24456         1         0     24459         1         0     24462         1         0
     24465         1         0     24468         1         0     24471         1         0
     24474         1         0     24477         1         0     24480         1         0
     24483         1         0     24486         1         0     24489         1         0
     24492         1         0     24495         1         0     24498         1         0
     24501         1         0     24504         1         0     24507         1         0
     24510         1         0     24513         1         0     24516         1         0
     24519         1         0     24522         1         0     24525         1         0
     24528         1         0     24531         1         0     24534         1         0
     24537         1         0     24540         1         0     24543         1         0
     24546         1         0     24549         1         0     24552         1         0
     24555         1         0     24558         1         0     24561         1         0
     24564         1         0     24567         1         0     24570         1         0
     24573         1         0     24576         1         0     24579         1         0
     24582         1         0     24585         1         0     24588         1         0
     24591         1         0     24594         1         0     24597         1         0
     24600         1         0     24603         1         0     24606         1         0
     24609         1         0     24612         1         0     24615         1         0
     24618         1         0     24621         1         0     24624         1         0
     24627         1         0     24630         1         0     24633         1         0
     24636         1         0     24639         1         0     24642         1         0
     24645         1         0     24648         1         0     24651         1         0
     24654         1         0     24657         1         0     24660         1         0
     24663         1         0     24666         1         0     24669         1         0
     24672         1         0     24675         1         0     24678         1         0
     24681         1         0     24684         1         0     24687         1         0
     24690         1         0     24693         1         0     24696         1         0
     24699         1         0     24702         1         0     24705         1         0
     24708         1         0     24711         1         0     24714         1         0
     24717         1         0     24720         1         0     24723         1         0
     24726         1         0     24729         1         0     24732         1         0
     24735         1         0     24738         1         0     24741         1         0
     24744         1         0     24747         1         0     24750         1         0
     24753         1         0     24756         1         0     24759         1         0
     24762         1         0     24765         1         0     24768         1         0
     24771         1         0     24774         1         0     24777         1         0
     24780         1         0     24783         1         0     24786         1         0
     24789         1         0     24792         1         0     24795         1         0
     24798         1         0     24801         1         0     24804         1         0
     24807         1         0     24810         1         0     24813         1         0
     24816         1         0     24819         1         0     24822         1         0
     24825         1         0     24828         1         0     24831         1         0
     24834         1         0     24837         1         0     24840         1         0
     24843         1         0     24846         1         0     24849         1         0
     24852         1         0     24855         1         0     24858         1         0
     24861         1         0     24864         1         0     24867         1         0
     24870         1         0     24873         1         0     24876         1         0
     24879         1         0     24882         1         0     24885         1         0
     24888         1         0     24891         1         0     24894         1         0
     24897         1         0     24900         1         0     24903         1         0
     24906         1         0     24909         1         0     24912         1         0
     24915         1         0     24918         1         0     24921         1         0
     24924         1         0     24927         1         0     24930         1         0
     24933         1         0     24936         1         0     24939         1         0
     24942         1         0     24945         1         0     24948         1         0
     24951         1         0     24954         1         0     24957         1         0
     24960         1         0     24963         1         0     24966         1         0
     24969         1         0     24972         1         0     24975         1         0
     24978         1         0     24981         1         0     24984         1         0
     24987         1         0     24990         1         0     24993         1         0
     24996         1         0     24999         1         0     25002         1         0
     25005         1         0     25008         1         0     25011         1         0
     25014         1         0     25017         1         0     25020         1         0
     25023         1         0     25026         1         0     25029         1         0
     25032         1         0     25035         1         0     25038         1         0
     25041         1         0     25044         1         0     25047         1         0
     25050         1         0     25053         1         0     25056         1         0
     25059         1         0     25062         1         0     25065         1         0
     25068         1         0     25071         1         0     25074         1         0
     25077         1         0     25080         1         0     25083         1         0
     25086         1         0     25089         1         0     25092         1         0
     25095         1         0     25098         1         0     25101         1         0
     25104         1         0     25107         1         0     25110         1         0
     25113         1         0     25116         1         0     25119         1         0
     25122         1         0     25125         1         0     25128         1         0
     25131         1         0     25134         1         0     25137         1         0
     25140         1         0     25143         1         0     25146         1         0
     25149         1         0     25152         1         0     25155         1         0
     25158         1         0     25161         1         0     25164         1         0
     25167         1         0     25170         1         0     25173         1         0
     25176         1         0     25179         1         0     25182         1         0
     25185         1         0     25188         1         0     25191         1         0
     25194         1         0     25197         1         0     25200         1         0
     25203         1         0     25206         1         0     25209         1         0
     25212         1         0     25215         1         0     25218         1         0
     25221         1         0     25224         1         0     25227         1         0
     25230         1         0     25233         1         0     25236         1         0
     25239         1         0     25242         1         0     25245         1         0
     25248         1         0     25251         1         0     25254         1         0
     25257         1         0     25260         1         0     25263         1         0
     25266         1         0     25269         1         0     25272         1         0
     25275         1         0     25278         1         0     25281         1         0
     25284         1         0     25287         1         0     25290         1         0
     25293         1         0     25296         1         0     25299         1         0
     25302         1         0     25305         1         0     25308         1         0
     25311         1         0     25314         1         0     25317         1         0
     25320         1         0     25323         1         0     25326         1         0
     25329         1         0     25332         1         0     25335         1         0
     25338         1         0     25341         1         0     25344         1         0
     25347         1         0     25350         1         0     25353         1         0
     25356         1         0     25359         1         0     25362         1         0
     25365         1         0     25368         1         0     25371         1         0
     25374         1         0     25377         1         0     25380         1         0
     25383         1         0     25386         1         0     25389         1         0
     25392         1         0     25395         1         0     25398         1         0
     25401         1         0     25404         1         0     25407         1         0
     25410         1         0     25413         1         0     25416         1         0
     25419         1         0     25422         1         0     25425         1         0
     25428         1         0     25431         1         0     25434         1         0
     25437         1         0     25440         1         0     25443         1         0
     25446         1         0     25449         1         0     25452         1         0
     25455         1         0     25458         1         0     25461         1         0
     25464         1         0     25467         1         0     25470         1         0
     25473         1         0     25476         1         0     25479         1         0
     25482         1         0     25485         1         0     25488         1         0
     25491         1         0     25494         1         0     25497         1         0
     25500         1         0     25503         1         0     25506         1         0
     25509         1         0     25512         1         0     25515         1         0
     25518         1         0     25521         1         0     25524         1         0
     25527         1         0     25530         1         0     25533         1         0
     25536         1         0     25539         1         0     25542         1         0
     25545         1         0     25548         1         0     25551         1         0
     25554         1         0     25557         1         0     25560         1         0
     25563         1         0     25566         1         0     25569         1         0
     25572         1         0     25575         1         0     25578         1         0
     25581         1         0     25584         1         0     25587         1         0
     25590         1         0     25593         1         0     25596         1         0
     25599         1         0     25602         1         0     25605         1         0
     25608         1         0     25611         1         0     25614         1         0
     25617         1         0     25620         1         0     25623         1         0
     25626         1         0     25629         1         0     25632         1         0
     25635         1         0     25638         1         0     25641         1         0
     25644         1         0     25647         1         0     25650         1         0
     25653         1         0     25656         1         0     25659         1         0
     25662         1         0     25665         1         0     25668         1         0
     25671         1         0     25674         1         0     25677         1         0
     25680         1         0     25683         1         0     25686         1         0
     25689         1         0     25692         1         0     25695         1         0
     25698         1         0     25701         1         0     25704         1         0
     25707         1         0     25710         1         0     25713         1         0
     25716         1         0     25719         1         0     25722         1         0
     25725         1         0     25728         1         0     25731         1         0
     25734         1         0     25737         1         0     25740         1         0
     25743         1         0     25746         1         0     25749         1         0
     25752         1         0     25755         1         0     25758         1         0
     25761         1         0     25764         1         0     25767         1         0
     25770         1         0     25773         1         0     25776         1         0
     25779         1         0     25782         1         0     25785         1         0
     25788         1         0     25791         1         0     25794         1         0
     25797         1         0     25800         1         0     25803         1         0
     25806         1         0     25809         1         0     25812         1         0
     25815         1         0     25818         1         0     25821         1         0
     25824         1         0     25827         1         0     25830         1         0
     25833         1         0     25836         1         0     25839         1         0
     25842         1         0     25845         1         0     25848         1         0
     25851         1         0     25854         1         0     25857         1         0
     25860         1         0     25863         1         0     25866         1         0
     25869         1         0     25872         1         0     25875         1         0
     25878         1         0     25881         1         0     25884         1         0
     25887         1         0     25890         1         0     25893         1         0
     25896         1         0     25899         1         0     25902         1         0
     25905         1         0     25908         1         0     25911         1         0
     25914         1         0     25917         1         0     25920         1         0
     25923         1         0     25926         1         0     25929         1         0
     25932         1         0     25935         1         0     25938         1         0
     25941         1         0     25944         1         0     25947         1         0
     25950         1         0     25953         1         0     25956         1         0
     25959         1         0     25962         1         0     25965         1         0
     25968         1         0     25971         1         0     25974         1         0
     25977         1         0     25980         1         0     25983         1         0
     25986         1         0     25989         1         0     25992         1         0
     25995         1         0     25998         1         0     26001         1         0
     26004         1         0     26007         1         0     26010         1         0
     26013         1         0     26016         1         0     26019         1         0
     26022         1         0     26025         1         0     26028         1         0
     26031         1         0     26034         1         0     26037         1         0
     26040         1         0     26043         1         0     26046         1         0
     26049         1         0     26052         1         0     26055         1         0
     26058         1         0     26061         1         0     26064         1         0
     26067         1         0     26070         1         0     26073         1         0
     26076         1         0     26079         1         0     26082         1         0
     26085         1         0     26088         1         0     26091         1         0
     26094         1         0     26097         1         0     26100         1         0
     26103         1         0     26106         1         0     26109         1         0
     26112         1         0     26115         1         0     26118         1         0
     26121         1         0     26124         1         0     26127         1         0
     26130         1         0     26133         1         0     26136         1         0
     26139         1         0     26142         1         0     26145         1         0
     26148         1         0     26151         1         0     26154         1         0
     26157         1         0     26160         1         0     26163         1         0
     26166         1         0     26169         1         0     26172         1         0
     26175         1         0     26178         1         0     26181         1         0
     26184         1         0     26187         1         0     26190         1         0
     26193         1         0     26196         1         0     26199         1         0
     26202         1         0     26205         1         0     26208         1         0
     26211         1         0     26214         1         0     26217         1         0
     26220         1         0     26223         1         0     26226         1         0
     26229         1         0     26232         1         0     26235         1         0
     26238         1         0     26241         1         0     26244         1         0
     26247         1         0     26250         1         0     26253         1         0
     26256         1         0     26259         1         0     26262         1         0
     26265         1         0     26268         1         0     26271         1         0
     26274         1         0     26277         1         0     26280         1         0
     26283         1         0     26286         1         0     26289         1         0
     26292         1         0     26295         1         0     26298         1         0
     26301         1         0     26304         1         0     26307         1         0
     26310         1         0     26313         1         0     26316         1         0
     26319         1         0     26322         1         0     26325         1         0
     26328         1         0     26331         1         0     26334         1         0
     26337         1         0     26340         1         0     26343         1         0
     26346         1         0     26349         1         0     26352         1         0
     26355         1         0     26358         1         0     26361         1         0
     26364         1         0     26367         1         0     26370         1         0
     26373         1         0     26376         1         0     26379         1         0
     26382         1         0     26385         1         0     26388         1         0
     26391         1         0     26394         1         0     26397         1         0
     26400         1         0     26403         1         0     26406         1         0
     26409         1         0     26412         1         0     26415         1         0
     26418         1         0     26421         1         0     26424         1         0
     26427         1         0     26430         1         0     26433         1         0
     26436         1         0     26439         1         0     26442         1         0
     26445         1         0     26448         1         0     26451         1         0
     26454         1         0     26457         1         0     26460         1         0
     26463         1         0     26466         1         0     26469         1         0
     26472         1         0     26475         1         0     26478         1         0
     26481         1         0     26484         1         0     26487         1         0
     26490         1         0     26493         1         0     26496         1         0
     26499         1         0     26502         1         0     26505         1         0
     26508         1         0     26511         1         0     26514         1         0
     26517         1         0     26520         1         0     26523         1         0
     26526         1         0     26529         1         0     26532         1         0
     26535         1         0     26538         1         0     26541         1         0
     26544         1         0     26547         1         0     26550         1         0
     26553         1         0     26556         1         0     26559         1         0
     26562         1         0     26565         1         0     26568         1         0
     26571         1         0     26574         1         0     26577         1         0
     26580         1         0     26583         1         0     26586         1         0
     26589         1         0     26592         1         0     26595         1         0
     26598         1         0     26601         1         0     26604         1         0
     26607         1         0     26610         1         0     26613         1         0
     26616         1         0     26619         1         0     26622         1         0
     26625         1         0     26628         1         0     26631         1         0
     26634         1         0     26637         1         0     26640         1         0
     26643         1         0     26646         1         0     26649         1         0
     26652         1         0     26655         1         0     26658         1         0
     26661         1         0     26664         1         0     26667         1         0
     26670         1         0     26673         1         0     26676         1         0
     26679         1         0     26682         1         0     26685         1         0
     26688         1         0     26691         1         0     26694         1         0
     26697         1         0     26700         1         0     26703         1         0
     26706         1         0     26709         1         0     26712         1         0
     26715         1         0     26718         1         0     26721         1         0
     26724         1         0     26727         1         0     26730         1         0
     26733         1         0     26736         1         0     26739         1         0
     26742         1         0     26745         1         0     26748         1         0
     26751         1         0     26754         1         0     26757         1         0
     26760         1         0     26763         1         0     26766         1         0
     26769         1         0     26772         1         0     26775         1         0
     26778         1         0     26781         1         0     26784         1         0
     26787         1         0     26790         1         0     26793         1         0
     26796         1         0     26799         1         0     26802         1         0
     26805         1         0     26808         1         0     26811         1         0
     26814         1         0     26817         1         0     26820         1         0
     26823         1         0     26826         1         0     26829         1         0
     26832         1         0     26835         1         0     26838         1         0
     26841         1         0     26844         1         0     26847         1         0
     26850         1         0     26853         1         0     26856         1         0
     26859         1         0     26862         1         0     26865         1         0
     26868         1         0     26871         1         0     26874         1         0
     26877         1         0     26880         1         0     26883         1         0
     26886         1         0     26889         1         0     26892         1         0
     26895         1         0     26898         1         0     26901         1         0
     26904         1         0     26907         1         0     26910         1         0
     26913         1         0     26916         1         0     26919         1         0
     26922         1         0     26925         1         0     26928         1         0
     26931         1         0     26934         1         0     26937         1         0
     26940         1         0     26943         1         0     26946         1         0
     26949         1         0     26952         1         0     26955         1         0
     26958         1         0     26961         1         0     26964         1         0
     26967         1         0     26970         1         0     26973         1         0
     26976         1         0     26979         1         0     26982         1         0
     26985         1         0     26988         1         0     26991         1         0
     26994         1         0     26997         1         0     27000         1         0
     27003         1         0     27006         1         0     27009         1         0
     27012         1         0     27015         1         0     27018         1         0
     27021         1         0     27024         1         0     27027         1         0
     27030         1         0     27033         1         0     27036         1         0
     27039         1         0     27042         1         0     27045         1         0
     27048         1         0     27051         1         0     27054         1         0
     27057         1         0     27060         1         0     27063         1         0
     27066         1         0     27069         1         0     27072         1         0
     27075         1         0     27078         1         0     27081         1         0
     27084         1         0     27087         1         0     27090         1         0
     27093         1         0     27096         1         0     27099         1         0
     27102         1         0     27105         1         0     27108         1         0
     27111         1         0     27114         1         0     27117         1         0
     27120         1         0     27123         1         0     27126         1         0
     27129         1         0     27132         1         0     27135         1         0
     27138         1         0     27141         1         0     27144         1         0
     27147         1         0     27150         1         0     27153         1         0
     27156         1         0     27159         1         0     27162         1         0
     27165         1         0     27168         1         0     27171         1         0
     27174         1         0     27177         1         0     27180         1         0
     27183         1         0     27186         1         0     27189         1         0
     27192         1         0     27195         1         0     27198         1         0
     27201         1         0     27204         1         0     27207         1         0
     27210         1         0     27213         1         0     27216         1         0
     27219         1         0     27222         1         0     27225         1         0
     27228         1         0     27231         1         0     27234         1         0
     27237         1         0     27240         1         0     27243         1         0
     27246         1         0     27249         1         0     27252         1         0
     27255         1         0     27258         1         0     27261         1         0
     27264         1         0     27267         1         0     27270         1         0
     27273         1         0     27276         1         0     27279         1         0
     27282         1         0     27285         1         0     27288         1         0
     27291         1         0     27294         1         0     27297         1         0
     27300         1         0     27303         1         0     27306         1         0
     27309         1         0     27312         1         0     27315         1         0
     27318         1         0     27321         1         0     27324         1         0
     27327         1         0     27330         1         0     27333         1         0
     27336         1         0     27339         1         0     27342         1         0
     27345         1         0     27348         1         0     27351         1         0
     27354         1         0     27357         1         0     27360         1         0
     27363         1         0     27366         1         0     27369         1         0
     27372         1         0     27375         1         0     27378         1         0
     27381         1         0     27384         1         0     27387         1         0
     27390         1         0     27393         1         0     27396         1         0
     27399         1         0     27402         1         0     27405         1         0
     27408         1         0     27411         1         0     27414         1         0
     27417         1         0     27420         1         0     27423         1         0
     27426         1         0     27429         1         0     27432         1         0
     27435         1         0     27438         1         0     27441         1         0
     27444         1         0     27447         1         0     27450         1         0
     27453         1         0     27456         1         0     27459         1         0
     27462         1         0     27465         1         0     27468         1         0
     27471         1         0     27474         1         0     27477         1         0
     27480         1         0     27483         1         0     27486         1         0
     27489         1         0     27492         1         0     27495         1         0
     27498         1         0     27501         1         0     27504         1         0
     27507         1         0     27510         1         0     27513         1         0
     27516         1         0     27519         1         0     27522         1         0
     27525         1         0     27528         1         0     27531         1         0
     27534         1         0     27537         1         0     27540         1         0
     27543         1         0     27546         1         0     27549         1         0
     27552         1         0     27555         1         0     27558         1         0
     27561         1         0     27564         1         0     27567         1         0
     27570         1         0     27573         1         0     27576         1         0
     27579         1         0     27582         1         0     27585         1         0
     27588         1         0     27591         1         0     27594         1         0
     27597         1         0     27600         1         0     27603         1         0
     27606         1         0     27609         1         0     27612         1         0
     27615         1         0     27618         1         0     27621         1         0
     27624         1         0     27627         1         0     27630         1         0
     27633         1         0     27636         1         0     27639         1         0
     27642         1         0     27645         1         0     27648         1         0
     27651         1         0     27654         1         0     27657         1         0
     27660         1         0     27663         1         0     27666         1         0
     27669         1         0     27672         1         0     27675         1         0
     27678         1         0     27681         1         0     27684         1         0
     27687         1         0     27690         1         0     27693         1         0
     27696         1         0     27699         1         0     27702         1         0
     27705         1         0     27708         1         0     27711         1         0
     27714         1         0     27717         1         0     27720         1         0
     27723         1         0     27726         1         0     27729         1         0
     27732         1         0     27735         1         0     27738         1         0
     27741         1         0     27744         1         0     27747         1         0
     27750         1         0     27753         1         0     27756         1         0
     27759         1         0     27762         1         0     27765         1         0
     27768         1         0     27771         1         0     27774         1         0
     27777         1         0     27780         1         0     27783         1         0
     27786         1         0     27789         1         0     27792         1         0
     27795         1         0     27798         1         0     27801         1         0
     27804         1         0     27807         1         0     27810         1         0
     27813         1         0     27816         1         0     27819         1         0
     27822         1         0     27825         1         0     27828         1         0
     27831         1         0     27834         1         0     27837         1         0
     27840         1         0     27843         1         0     27846         1         0
     27849         1         0     27852         1         0     27855         1         0
     27858         1         0     27861         1         0     27864         1         0
     27867         1         0     27870         1         0     27873         1         0
     27876         1         0     27879         1         0     27882         1         0
     27885         1         0     27888         1         0     27891         1         0
     27894         1         0     27897         1         0     27900         1         0
     27903         1         0     27906         1         0     27909         1         0
     27912         1         0     27915         1         0     27918         1         0
     27921         1         0     27924         1         0     27927         1         0
     27930         1         0     27933         1         0     27936         1         0
     27939         1         0     27942         1         0     27945         1         0
     27948         1         0     27951         1         0     27954         1         0
     27957         1         0     27960         1         0     27963         1         0
     27966         1         0     27969         1         0     27972         1         0
     27975         1         0     27978         1         0     27981         1         0
     27984         1         0     27987         1         0     27990         1         0
     27993         1         0     27996         1         0     27999         1         0
     28002         1         0     28005         1         0     28008         1         0
     28011         1         0     28014         1         0     28017         1         0
     28020         1         0     28023         1         0     28026         1         0
     28029         1         0     28032         1         0     28035         1         0
     28038         1         0     28041         1         0     28044         1         0
     28047         1         0     28050         1         0     28053         1         0
     28056         1         0     28059         1         0     28062         1         0
     28065         1         0     28068         1         0     28071         1         0
     28074         1         0     28077         1         0     28080         1         0
     28083         1         0     28086         1         0     28089         1         0
     28092         1         0     28095         1         0     28098         1         0
     28101         1         0     28104         1         0     28107         1         0
     28110         1         0     28113         1         0     28116         1         0
     28119         1         0     28122         1         0     28125         1         0
     28128         1         0     28131         1         0     28134         1         0
     28137         1         0     28140         1         0     28143         1         0
     28146         1         0     28149         1         0     28152         1         0
     28155         1         0     28158         1         0     28161         1         0
     28164         1         0     28167         1         0     28170         1         0
     28173         1         0     28176         1         0     28179         1         0
     28182         1         0     28185         1         0     28188         1         0
     28191         1         0     28194         1         0     28197         1         0
     28200         1         0     28203         1         0     28206         1         0
     28209         1         0     28212         1         0     28215         1         0
     28218         1         0     28221         1         0     28224         1         0
     28227         1         0     28230         1         0     28233         1         0
     28236         1         0     28239         1         0     28242         1         0
     28245         1         0     28248         1         0     28251         1         0
     28254         1         0     28257         1         0     28260         1         0
     28263         1         0     28266         1         0     28269         1         0
     28272         1         0     28275         1         0     28278         1         0
     28281         1         0     28284         1         0     28287         1         0
     28290         1         0     28293         1         0     28296         1         0
     28299         1         0     28302         1         0     28305         1         0
     28308         1         0     28311         1         0     28314         1         0
     28317         1         0     28320         1         0     28323         1         0
     28326         1         0     28329         1         0     28332         1         0
     28335         1         0     28338         1         0     28341         1         0
     28344         1         0     28347         1         0     28350         1         0
     28353         1         0     28356         1         0     28359         1         0
     28362         1         0     28365         1         0     28368         1         0
     28371         1         0     28374         1         0     28377         1         0
     28380         1         0     28383         1         0     28386         1         0
     28389         1         0     28392         1         0     28395         1         0
     28398         1         0     28401         1         0     28404         1         0
     28407         1         0     28410         1         0     28413         1         0
     28416         1         0     28419         1         0     28422         1         0
     28425         1         0     28428         1         0     28431         1         0
     28434         1         0     28437         1         0     28440         1         0
     28443         1         0     28446         1         0     28449         1         0
     28452         1         0     28455         1         0     28458         1         0
     28461         1         0     28464         1         0     28467         1         0
     28470         1         0     28473         1         0     28476         1         0
     28479         1         0     28482         1         0     28485         1         0
     28488         1         0     28491         1         0     28494         1         0
     28497         1         0     28500         1         0     28503         1         0
     28506         1         0     28509         1         0     28512         1         0
     28515         1         0     28518         1         0     28521         1         0
     28524         1         0     28527         1         0     28530         1         0
     28533         1         0     28536         1         0     28539         1         0
     28542         1         0     28545         1         0     28548         1         0
     28551         1         0     28554         1         0     28557         1         0
     28560         1         0     28563         1         0     28566         1         0
     28569         1         0     28572         1         0     28575         1         0
     28578         1         0     28581         1         0     28584         1         0
     28587         1         0     28590         1         0     28593         1         0
     28596         1         0     28599         1         0     28602         1         0
     28605         1         0     28608         1         0     28611         1         0
     28614         1         0     28617         1         0     28620         1         0
     28623         1         0     28626         1         0     28629         1         0
     28632         1         0     28635         1         0     28638         1         0
     28641         1         0     28644         1         0     28647         1         0
     28650         1         0     28653         1         0     28656         1         0
     28659         1         0     28662         1         0     28665         1         0
     28668         1         0     28671         1         0     28674         1         0
     28677         1         0     28680         1         0     28683         1         0
     28686         1         0     28689         1         0     28692         1         0
     28695         1         0     28698         1         0     28701         1         0
     28704         1         0     28707         1         0     28710         1         0
     28713         1         0     28716         1         0     28719         1         0
     28722         1         0     28725         1         0     28728         1         0
     28731         1         0     28734         1         0     28737         1         0
     28740         1         0     28743         1         0     28746         1         0
     28749         1         0     28752         1         0     28755         1         0
     28758         1         0     28761         1         0     28764         1         0
     28767         1         0     28770         1         0     28773         1         0
     28776         1         0     28779         1         0     28782         1         0
     28785         1         0     28788         1         0     28791         1         0
     28794         1         0     28797         1         0     28800         2         0
     28801         2         0     28802         2         0     28803         2         0
     28804         2         0     28805         2         0     28806         2         0
     28807         2         0     28808         2         0     28809         2         0
     28810         2         0     28811         2         0     28812         2         0
     28813         2         0     28814         2         0     28815         2         0
     28816         2         0     28817         2         0     28818         2         0
     28819         2         0

         0         0 !NUMLP NUMLPH

         0 !NCRTERM: cross-terms


      5000 !AUTOGEN
         0         0         0         0         0         0         0         0
         0         0         0         0         0         0         0         0
         0         0         0         0         0         0         0         0
         0         0         0         0         0         0         0         0
         0         0         0         0         0         0         0         0
         0         0         0         0         0         0         0         0
         0         0         0         0         0         0         0         0
         0         0         0         0         0         0         0         0
         0         0         0         0         0         0         0         0
         0         0         0         0         0         0         0         0
         0         0         0         0         0         0         0         0
         0         0         0         0         0         0         0         0
         0         0         0         0         0         0         0         0
         0         0         0         0         0         0         0         0
         0         0         0         0         0         0         0         0
         0         0         0         0         0         0         0         0
         0         0         0         0         0         0         0         0
         0         0         0         0         0         0         0         0
         0         0         0         0         0         0         0         0
         0         0         0         0         0         0         0         0
         0         0         0         0         0         0         0         0
         0         0         0         0         0         0         0         0
         0         0         0         0         0         0         0         0
         0         0         0         0         0         0         0         0
         0         0         0         0         0         0         0         0
         0         0         0         0         0         0         0         0
         0         0         0         0         0         0         0         0
         0         0         0         0         0         0         0         0
         0         0         0         0         0         0         0         0
         0         0         0         0         0         0         0         0
         0         0         0         0         0         0         0         0
         0         0         0         0         0         0         0         0
         0         0         0         0         0         0         0         0
         0         0         0         0         0         0         0         0
         0         0         0         0         0         0         0         0
         0         0         0         0         0         0         0         0
         0         0         0         0         0         0         0         0
         0         0         0         0         0         0         0         0
         0         0         0         0         0         0         0         0
         0         0         0         0         0         0         0         0
         0         0         0         0         0         0         0         0
         0         0         0         0         0         0         0         0
         0         0         0         0         0         0         0         0
         0         0         0         0         0         0         0         0
         0         0         0         0         0         0         0         0
         0         0         0         0         0         0         0         0
         0         0         0         0         0         0         0         0
         0         0         0         0         0         0         0         0
         0         0         0         0         0         0         0         0
         0         0         0         0         0         0         0         0
         0         0         0         0         0         0         0         0
         0         0         0         0         0         0         0         0
         0         0         0         0         0         0         0         0
         0         0         0         0         0         0         0         0
         0         0         0         0         0         0         0         0
         0         0         0         0         0         0         0         0
         0         0         0         0         0         0         0         0
         0         0         0         0         0         0         0         0
         0         0         0         0         0         0         0         0
         0         0         0         0         0         0         0         0
         0         0         0         0         0         0         0         0
         0         0         0         0         0         0         0         0
         0         0         0         0         0         0         0         0
         0         0         0         0         0         0         0         0
         0         0         0         0         0         0         0         0
         0         0         0         0         0         0         0         0
         0         0         0         0         0         0         0         0
         0         0         0         0         0         0         0         0
         0         0         0         0         0         0         0         0
         0         0         0         0         0         0         0         0
         0         0         0         0         0         0         0         0
         0         0         0         0         0         0         0         0
         0         0         0         0         0         0         0         0
         0         0         0         0         0         0         0         0
         0         0         0         0         0         0         0         0
         0         0         0         0         0         0         0         0
         0         0         0         0         0         0         0         0
         0         0         0         0         0         0         0         0
         0         0         0         0         0         0         0         0
         0         0         0         0         0         0         0         0
         0         0         0         0         0         0         0         0
         0         0         0         0         0         0         0         0
         0         0         0         0         0         0         0         0
         0         0         0         0         0         0         0         0
         0         0         0         0         0         0         0         0
         0         0         0         0         0         0         0         0
         0         0         0         0         0         0         0         0
         0         0         0         0         0         0         0         0
         0         0         0         0         0         0         0         0
         0         0         0         0         0         0         0         0
         0         0         0         0         0         0         0         0
         0         0         0         0         0         0         0         0
         0         0         0         0         0         0         0         0
         0         0         0         0         0         0         0         0
         0         0         0         0         0         0         0         0
         0         0         0         0         0         0         0         0
         0         0         0         0         0         0         0         0
         0         0         0         0         0         0         0         0
         0         0         0         0         0         0         0         0
         0         0         0         0         0         0         0         0
         0         0         0         0         0         0         0         0
         0         0         0         0         0         0         0         0
         0         0         0         0         0         0         0         0
         0         0         0         0         0         0         0         0
         0         0         0         0         0         0         0         0
         0         0         0         0         0         0         0         0
         0         0         0         0         0         0         0         0
         0         0         0         0         0         0         0         0
         0         0         0         0         0         0         0         0
         0         0         0         0         0         0         0         0
         0         0         0         0         0         0         0         0
         0         0         0         0         0         0         0         0
         0         0         0         0         0         0         0         0
         0         0         0         0         0         0         0         0
         0         0         0         0         0         0         0         0
         0         0         0         0         0         0         0         0
         0         0         0         0         0         0         0         0
         0         0         0         0         0         0         0         0
         0         0         0         0         0         0         0         0
         0         0         0         0         0         0         0         0
         0         0         0         0         0         0         0         0
         0         0         0         0         0         0         0         0
         0         0         0         0         0         0         0         0
         0         0         0         0         0         0         0         0
         0         0         0         0         0         0         0         0
         0         0         0         0         0         0         0         0
         0         0         0         0         0         0         0         0
         0         0         0         0         0         0         0         0
         0         0         0         0         0         0         0         0
         0         0         0         0         0         0         0         0
         0         0         0         0         0         0         0         0
         0         0         0         0         0         0         0         0
         0         0         0         0         0         0         0         0
         0         0         0         0         0         0         0         0
         0         0         0         0         0         0         0         0
         0         0         0         0         0         0         0         0
         0         0         0         0         0         0         0         0
         0         0         0         0         0         0         0         0
         0         0         0         0         0         0         0         0
         0         0         0         0         0         0         0         0
         0         0         0         0         0         0         0         0
         0         0         0         0         0         0         0         0
         0         0         0         0         0         0         0         0
         0         0         0         0         0         0         0         0
         0         0         0         0         0         0         0         0
         0         0         0         0         0         0         0         0
         0         0         0         0         0         0         0         0
         0         0         0         0         0         0         0         0
         0         0         0         0         0         0         0         0
         0         0         0         0         0         0         0         0
         0         0         0         0         0         0         0         0
         0         0         0         0         0         0         0         0
         0         0         0         0         0         0         0         0
         0         0         0         0         0         0         0         0
         0         0         0         0         0         0         0         0
         0         0         0         0         0         0         0         0
         0         0         0         0         0         0         0         0
         0         0         0         0         0         0         0         0
         0         0         0         0         0         0         0         0
         0         0         0         0         0         0         0         0
         0         0         0         0         0         0         0         0
         0         0         0         0         0         0         0         0
         0         0         0         0         0         0         0         0
         0         0         0         0         0         0         0         0
         0         0         0         0         0         0         0         0
         0         0         0         0         0         0         0         0
         0         0         0         0         0         0         0         0
         0         0         0         0         0         0         0         0
         0         0         0         0         0         0         0         0
         0         0         0         0         0         0         0         0
         0         0         0         0         0         0         0         0
         0         0         0         0         0         0         0         0
         0         0         0         0         0         0         0         0
         0         0         0         0         0         0         0         0
         0         0         0         0         0         0         0         0
         0         0         0         0         0         0         0         0
         0         0         0         0         0         0         0         0
         0         0         0         0         0         0         0         0
         0         0         0         0         0         0         0         0
         0         0         0         0         0         0         0         0
         0         0         0         0         0         0         0         0
         0         0         0         0         0         0         0         0
         0         0         0         0         0         0         0         0
         0         0         0         0         0         0         0         0
         0         0         0         0         0         0         0         0
         0         0         0         0         0         0         0         0
         0         0         0         0         0         0         0         0
         0         0         0         0         0         0         0         0
         0         0         0         0         0         0         0         0
         0         0         0         0         0         0         0         0
         0         0         0         0         0         0         0         0
         0         0         0         0         0         0         0         0
         0         0         0         0         0         0         0         0
         0         0         0         0         0         0         0         0
         0         0         0         0         0         0         0         0
         0         0         0         0         0         0         0         0
         0         0         0         0         0         0         0         0
         0         0         0         0         0         0         0         0
         0         0         0         0         0         0         0         0
         0         0         0         0         0         0         0         0
         0         0         0         0         0         0         0         0
         0         0         0         0         0         0         0         0
         0         0         0         0         0         0         0         0
         0         0         0         0         0         0         0         0
         0         0         0         0         0         0         0         0
         0         0         0         0         0         0         0         0
         0         0         0         0         0         0         0         0
         0         0         0         0         0         0         0         0
         0         0         0         0         0         0         0         0
         0         0         0         0         0         0         0         0
         0         0         0         0         0         0         0         0
         0         0         0         0         0         0         0         0
         0         0         0         0         0         0         0         0
         0         0         0         0         0         0         0         0
         0         0         0         0         0         0         0         0
         0         0         0         0         0         0         0         0
         0         0         0         0         0         0         0         0
         0         0         0         0         0         0         0         0
         0         0         0         0         0         0         0         0
         0         0         0         0         0         0         0         0
         0         0         0         0         0         0         0         0
         0         0         0         0         0         0         0         0
         0         0         0         0         0         0         0         0
         0         0         0         0         0         0         0         0
         0         0         0         0         0         0         0         0
         0         0         0         0         0         0         0         0
         0         0         0         0         0         0         0         0
         0         0         0         0         0         0         0         0
         0         0         0         0         0         0         0         0
         0         0         0         0         0         0         0         0
         0         0         0         0         0         0         0         0
         0         0         0         0         0         0         0         0
         0         0         0         0         0         0         0         0
         0         0         0         0         0         0         0         0
         0         0         0         0         0         0         0         0
         0         0         0         0         0         0         0         0
         0         0         0         0         0         0         0         0
         0         0         0         0         0         0         0         0
         0         0         0         0         0         0         0         0
         0         0         0         0         0         0         0         0
         0         0         0         0         0         0         0         0
         0         0         0         0         0         0         0         0
         0         0         0         0         0         0         0         0
         0         0         0         0         0         0         0         0
         0         0         0         0         0         0         0         0
         0         0         0         0         0         0         0         0
         0         0         0         0         0         0         0         0
         0         0         0         0         0         0         0         0
         0         0         0         0         0         0         0         0
         0         0         0         0         0         0         0         0
         0         0         0         0         0         0         0         0
         0         0         0         0         0         0         0         0
         0         0         0         0         0         0         0         0
         0         0         0         0         0         0         0         0
         0         0         0         0         0         0         0         0
         0         0         0         0         0         0         0         0
         0         0         0         0         0         0         0         0
         0         0         0         0         0         0         0         0
         0         0         0         0         0         0         0         0
         0         0         0         0         0         0         0         0
         0         0         0         0         0         0         0         0
         0         0         0         0         0         0         0         0
         0         0         0         0         0         0         0         0
         0         0         0         0         0         0         0         0
         0         0         0         0         0         0         0         0
         0         0         0         0         0         0         0         0
         0         0         0         0         0         0         0         0
         0         0         0         0         0         0         0         0
         0         0         0         0         0         0         0         0
         0         0         0         0         0         0         0         0
         0         0         0         0         0         0         0         0
         0         0         0         0         0         0         0         0
         0         0         0         0         0         0         0         0
         0         0         0         0         0         0         0         0
         0         0         0         0         0         0         0         0
         0         0         0         0         0         0         0         0
         0         0         0         0         0         0         0         0
         0         0         0         0         0         0         0         0
         0         0         0         0         0         0         0         0
         0         0         0         0         0         0         0         0
         0         0         0         0         0         0         0         0
         0         0         0         0         0         0         0         0
         0         0         0         0         0         0         0         0
         0         0         0         0         0         0         0         0
         0         0         0         0         0         0         0         0
         0         0         0         0         0         0         0         0
         0         0         0         0         0         0         0         0
         0         0         0         0         0         0         0         0
         0         0         0         0         0         0         0         0
         0         0         0         0         0         0         0         0
         0         0         0         0         0         0         0         0
         0         0         0         0         0         0         0         0
         0         0         0         0         0         0         0         0
         0         0         0         0         0         0         0         0
         0         0         0         0         0         0         0         0
         0         0         0         0         0         0         0         0
         0         0         0         0         0         0         0         0
         0         0         0         0         0         0         0         0
         0         0         0         0         0         0         0         0
         0         0         0         0         0         0         0         0
         0         0         0         0         0         0         0         0
         0         0         0         0         0         0         0         0
         0         0         0         0         0         0         0         0
         0         0         0         0         0         0         0         0
         0         0         0         0         0         0         0         0
         0         0         0         0         0         0         0         0
         0         0         0         0         0         0         0         0
         0         0         0         0         0         0         0         0
         0         0         0         0         0         0         0         0
         0         0         0         0         0         0         0         0
         0         0         0         0         0         0         0         0
         0         0         0         0         0         0         0         0
         0         0         0         0         0         0         0         0
         0         0         0         0         0         0         0         0
         0         0         0         0         0         0         0         0
         0         0         0         0         0         0         0         0
         0         0         0         0         0         0         0         0
         0         0         0         0         0         0         0         0
         0         0         0         0         0         0         0         0
         0         0         0         0         0         0         0         0
         0         0         0         0         0         0         0         0
         0         0         0         0         0         0         0         0
         0         0         0         0         0         0         0         0
         0         0         0         0         0         0         0         0
         0         0         0         0         0         0         0         0
         0         0         0         0         0         0         0         0
         0         0         0         0         0         0         0         0
         0         0         0         0         0         0         0         0
         0         0         0         0         0         0         0         0
         0         0         0         0         0         0         0         0
         0         0         0         0         0         0         0         0
         0         0         0         0         0         0         0         0
         0         0         0         0         0         0         0         0
         0         0         0         0         0         0         0         0
         0         0         0         0         0         0         0         0
         0         0         0         0         0         0         0         0
         0         0         0         0         0         0         0         0
         0         0         0         0         0         0         0         0
         0         0         0         0         0         0         0         0
         0         0         0         0         0         0         0         0
         0         0         0         0         0         0         0         0
         0         0         0         0         0         0         0         0
         0         0         0         0         0         0         0         0
         0         0         0         0         0         0         0         0
         0         0         0         0         0         0         0         0
         0         0         0         0         0         0         0         0
         0         0         0         0         0         0         0         0
         0         0         0         0         0         0         0         0
         0         0         0         0         0         0         0         0
         0         0         0         0         0         0         0         0
         0         0         0         0         0         0         0         0
         0         0         0         0         0         0         0         0
         0         0         0         0         0         0         0         0
         0         0         0         0         0         0         0         0
         0         0         0         0         0         0         0         0
         0         0         0         0         0         0         0         0
         0         0         0         0         0         0         0         0
         0         0         0         0         0         0         0         0
         0         0         0         0         0         0         0         0
         0         0         0         0         0         0         0         0
         0         0         0         0         0         0         0         0
         0         0         0         0         0         0         0         0
         0         0         0         0         0         0         0         0
         0         0         0         0         0         0         0         0
         0         0         0         0         0         0         0         0
         0         0         0         0         0         0         0         0
         0         0         0         0         0         0         0         0
         0         0         0         0         0         0         0         0
         0         0         0         0         0         0         0         0
         0         0         0         0         0         0         0         0
         0         0         0         0         0         0         0         0
         0         0         0         0         0         0         0         0
         0         0         0         0         0         0         0         0
         0         0         0         0         0         0         0         0
         0         0         0         0         0         0         0         0
         0         0         0         0         0         0         0         0
         0         0         0         0         0         0         0         0
         0         0         0         0         0         0         0         0
         0         0         0         0         0         0         0         0
         0         0         0         0         0         0         0         0
         0         0         0         0         0         0         0         0
         0         0         0         0         0         0         0         0
         0         0         0         0         0         0         0         0
         0         0         0         0         0         0         0         0
         0         0         0         0         0         0         0         0
         0         0         0         0         0         0         0         0
         0         0         0         0         0         0         0         0
         0         0         0         0         0         0         0         0
         0         0         0         0         0         0         0         0
         0         0         0         0         0         0         0         0
         0         0         0         0         0         0         0         0
         0         0         0         0         0         0         0         0
         0         0         0         0         0         0         0         0
         0         0         0         0         0         0         0         0
         0         0         0         0         0         0         0         0
         0         0         0         0         0         0         0         0
         0         0         0         0         0         0         0         0
         0         0         0         0         0         0         0         0
         0         0         0         0         0         0         0         0
         0         0         0         0         0         0         0         0
         0         0         0         0         0         0         0         0
         0         0         0         0         0         0         0         0
         0         0         0         0         0         0         0         0
         0         0         0         0         0         0         0         0
         0         0         0         0         0         0         0         0
         0         0         0         0         0         0         0         0
         0         0         0         0         0         0         0         0
         0         0         0         0         0         0         0         0
         0         0         0         0         0         0         0         0
         0         0         0         0         0         0         0         0
         0         0         0         0         0         0         0         0
         0         0         0         0         0         0         0         0
         0         0         0         0         0         0         0         0
         0         0         0         0         0         0         0         0
         0         0         0         0         0         0         0         0
         0         0         0         0         0         0         0         0
         0         0         0         0         0         0         0         0
         0         0         0         0         0         0         0         0
         0         0         0         0         0         0         0         0
         0         0         0         0         0         0         0         0
         0         0         0         0         0         0         0         0
         0         0         0         0         0         0         0         0
         0         0         0         0         0         0         0         0
         0         0         0         0         0         0         0         0
         0         0         0         0         0         0         0         0
         0         0         0         0         0         0         0         0
         0         0         0         0         0         0         0         0
         0         0         0         0         0         0         0         0
         0         0         0         0         0         0         0         0
         0         0         0         0         0         0         0         0
         0         0         0         0         0         0         0         0
         0         0         0         0         0         0         0         0
         0         0         0         0         0         0         0         0
         0         0         0         0         0         0         0         0
         0         0         0         0         0         0         0         0
         0         0         0         0         0         0         0         0
         0         0         0         0         0         0         0         0
         0         0         0         0         0         0         0         0
         0         0         0         0         0         0         0         0
         0         0         0         0         0         0         0         0
         0         0         0         0         0         0         0         0
         0         0         0         0         0         0         0         0
         0         0         0         0         0         0         0         0
         0         0         0         0         0         0         0         0
         0         0         0         0         0         0         0         0
         0         0         0         0         0         0         0         0
         0         0         0         0         0         0         0         0
         0         0         0         0         0         0         0         0
         0         0         0         0         0         0         0         0
         0         0         0         0         0         0         0         0
         0         0         0         0         0         0         0         0
         0         0         0         0         0         0         0         0
         0         0         0         0         0         0         0         0
         0         0         0         0         0         0         0         0
         0         0         0         0         0         0         0         0
         0         0         0         0         0         0         0         0
         0         0         0         0         0         0         0         0
         0         0         0         0         0         0         0         0
         0         0         0         0         0         0         0         0
         0         0         0         0         0         0         0         0
         0         0         0         0         0         0         0         0
         0         0         0         0         0         0         0         0
         0         0         0         0         0         0         0         0
         0         0         0         0         0         0         0         0
         0         0         0         0         0         0         0         0
         0         0         0         0         0         0         0         0
         0         0         0         0         0         0         0         0
         0         0         0         0         0         0         0         0
         0         0         0         0         0         0         0         0
         0         0         0         0         0         0         0         0
         0         0         0         0         0         0         0         0
         0         0         0         0         0         0         0         0
         0         0         0         0         0         0         0         0
         0         0         0         0         0         0         0         0
         0         0         0         0         0         0         0         0
         0         0         0         0         0         0         0         0
         0         0         0         0         0         0         0         0
         0         0         0         0         0         0         0         0
         0         0         0         0         0         0         0         0
         0         0         0         0         0         0         0         0
         0         0         0         0         0         0         0         0
         0         0         0         0         0         0         0         0
         0         0         0         0         0         0         0         0
         0         0         0         0         0         0         0         0
         0         0         0         0         0         0         0         0
         0         0         0         0         0         0         0         0
         0         0         0         0         0         0         0         0
         0         0         0         0         0         0         0         0
         0         0         0         0         0         0         0         0
         0         0         0         0         0         0         0         0
         0         0         0         0         0         0         0         0
         0         0         0         0         0         0         0         0
         0         0         0         0         0         0         0         0
         0         0         0         0         0         0         0         0
         0         0         0         0         0         0         0         0
         0         0         0         0         0         0         0         0
         0         0         0         0         0         0         0         0
         0         0         0         0         0         0         0         0
         0         0         0         0         0         0         0         0
         0         0         0         0         0         0         0         0
         0         0         0         0         0         0         0         0
         0         0         0         0         0         0         0         0
         0         0         0         0         0         0         0         0
         0         0         0         0         0         0         0         0
         0         0         0         0         0         0         0         0
         0         0         0         0         0         0         0         0
         0         0         0         0         0         0         0         0
         0         0         0         0         0         0         0         0
         0         0         0         0         0         0         0         0
         0         0         0         0         0         0         0         0
         0         0         0         0         0         0         0         0
         0         0         0         0         0         0         0         0
         0         0         0         0         0         0         0         0
         0         0         0         0         0         0         0         0
         0         0         0         0         0         0         0         0
         0         0         0         0         0         0         0         0
         0         0         0         0         0         0         0         0
         0         0         0         0         0         0         0         0
         0         0         0         0         0         0         0         0
         0         0         0         0         0         0         0         0
         0         0         0         0         0         0         0         0
         0         0         0         0         0         0         0         0
         0         0         0         0         0         0         0         0
         0         0         0         0         0         0         0         0
         0         0         0         0         0         0         0         0
         0         0         0         0         0         0         0         0
         0         0         0         0         0         0         0         0
         0         0         0         0         0         0         0         0
         0         0         0         0         0         0         0         0
         0         0         0         0         0         0         0         0
         0         0         0         0         0         0         0         0
         0         0         0         0         0         0         0         0
         0         0         0         0         0         0         0         0
         0         0         0         0         0         0         0         0
         0         0         0         0         0         0         0         0
         0         0         0         0         0         0         0         0
         0         0         0         0         0         0         0         0
         0         0         0         0         0         0         0         0
         0         0         0         0         0         0         0         0
         0         0         0         0         0         0         0         0
         0         0         0         0         0         0         0         0
         0         0         0         0         0         0         0         0
         0         0         0         0         0         0         0         0
         0         0         0         0         0         0         0         0
         0         0         0         0         0         0         0         0
         0         0         0         0         0         0         0         0
         0         0         0         0         0         0         0         0
         0         0         0         0         0         0         0         0
         0         0         0         0         0         0         0         0
         0         0         0         0         0         0         0         0
         0         0         0         0         0         0         0         0
         0         0         0         0         0         0         0         0
         0         0         0         0         0         0         0         0
         0         0         0         0         0         0         0         0
         0         0         0         0         0         0         0         0
         0         0         0         0         0         0         0         0
         0         0         0         0         0         0         0         0
         0         0         0         0         0         0         0         0
         0         0         0         0         0         0         0         0
         0         0         0         0         0         0         0         0
         0         0         0         0         0         0         0         0
         0         0         0         0         0         0         0         0
         0         0         0         0         0         0         0         0
         0         0         0         0         0         0         0         0
         0         0         0         0         0         0         0         0
         0         0         0         0         0         0         0         0
         0         0         0         0         0         0         0         0
         0         0         0         0         0         0         0         0
         0         0         0         0         0         0         0         0
         0         0         0         0         0         0         0         0
         0         0         0         0         0         0         0         0
         0         0         0         0         0         0         0         0
         0         0         0         0         0         0         0         0
         0         0         0         0         0         0         0         0
         0         0         0         0         0         0         0         0
         0         0         0         0         0         0         0         0
         0         0         0         0         0         0         0         0
         0         0         0         0         0         0         0         0
         0         0         0         0         0         0         0         0
         0         0         0         0         0         0         0         0
         0         0         0         0         0         0         0         0
         0         0         0         0         0         0         0         0
         0         0         0         0         0         0         0         0
         0         0         0         0         0         0         0         0
         0         0         0         0         0         0         0         0
         0         0         0         0         0         0         0         0
         0         0         0         0         0         0         0         0
         0         0         0         0         0         0         0         0
         0         0         0         0         0         0         0         0
         0         0         0         0         0         0         0         0
         0         0         0         0         0         0         0         0
         0         0         0         0         0         0         0         0
         0         0         0         0         0         0         0         0
         0         0         0         0         0         0         0         0
         0         0         0         0         0         0         0         0
         0         0         0         0         0         0         0         0
         0         0         0         0         0         0         0         0
         0         0         0         0         0         0         0         0
         0         0         0         0         0         0         0         0
         0         0         0         0         0         0         0         0
         0         0         0         0         0         0         0         0
         0         0         0         0         0         0         0         0
         0         0         0         0         0         0         0         0
         0         0         0         0         0         0         0         0
         0         0         0         0         0         0         0         0
         0         0         0         0         0         0         0         0
         0         0         0         0         0         0         0         0
         0         0         0         0         0         0         0         0
         0         0         0         0         0         0         0         0
         0         0         0         0         0         0         0         0
         0         0         0         0         0         0         0         0
         0         0         0         0         0         0         0         0
         0         0         0         0         0         0         0         0
         0         0         0         0         0         0         0         0
         0         0         0         0         0         0         0         0
         0         0         0         0         0         0         0         0
         0         0         0         0         0         0         0         0
         0         0         0         0         0         0         0         0
         0         0         0         0         0         0         0         0
         0         0         0         0         0         0         0         0
         0         0         0         0         0         0         0         0
         0         0         0         0         0         0         0         0
         0         0         0         0         0         0         0         0
         0         0         0         0         0         0         0         0
         0         0         0         0         0         0         0         0
         0         0         0         0         0         0         0         0
         0         0         0         0         0         0         0         0
         0         0         0         0         0         0         0         0
         0         0         0         0         0         0         0         0
         0         0         0         0         0         0         0         0
         0         0         0         0         0         0         0         0
         0         0         0         0         0         0         0         0
         0         0         0         0         0         0         0         0
         0         0         0         0         0         0         0         0
         0         0         0         0         0         0         0         0
         0         0         0         0         0         0         0         0
         0         0         0         0         0         0         0         0
         0         0         0         0         0         0         0         0
         0         0         0         0         0         0         0         0
         0         0         0         0         0         0         0         0
         0         0         0         0         0         0         0         0
         0         0         0         0         0         0         0         0
         0         0         0         0         0         0         0         0
         0         0         0         0         0         0         0         0
         0         0         0         0         0         0         0         0
         0         0         0         0         0         0         0         0
         0         0         0         0         0         0         0         0
         0         0         0         0         0         0         0         0
         0         0         0         0         0         0         0         0
         0         0         0         0         0         0         0         0
         0         0         0         0         0         0         0         0
         0         0         0         0         0         0         0         0
         0         0         0         0         0         0         0         0
         0         0         0         0         0         0         0         0
         0         0         0         0         0         0         0         0
         0         0         0         0         0         0         0         0
         0         0         0         0         0         0         0         0
         0         0         0         0         0         0         0         0
         0         0         0         0         0         0         0         0
         0         0         0         0         0         0         0         0
         0         0         0         0         0         0         0         0
         0         0         0         0         0         0         0         0
         0         0         0         0         0         0         0         0
         0         0         0         0         0         0         0         0
         0         0         0         0         0         0         0         0
         0         0         0         0         0         0         0         0
         0         0         0         0         0         0         0         0
         0         0         0         0         0         0         0         0
         0         0         0         0         0         0         0         0
         0         0         0         0         0         0         0         0
         0         0         0         0         0         0         0         0
         0         0         0         0         0         0         0         0
         0         0         0         0         0         0         0         0
         0         0         0         0         0         0         0         0
         0         0         0         0         0         0         0         0
         0         0         0         0         0         0         0         0
         0         0         0         0         0         0         0         0
         0         0         0         0         0         0         0         0
         0         0         0         0         0         0         0         0
         0         0         0         0         0         0         0         0
         0         0         0         0         0         0         0         0
         0         0         0         0         0         0         0         0
         0         0         0         0         0         0         0         0
         0         0         0         0         0         0         0         0
         0         0         0         0         0         0         0         0
         0         0         0         0         0         0         0         0
         0         0         0         0         0         0         0         0
         0         0         0         0         0         0         0         0
         0         0         0         0         0         0         0         0
         0         0         0         0         0         0         0         0
         0         0         0         0         0         0         0         0
         0         0         0         0         0         0         0         0
         0         0         0         0         0         0         0         0
         0         0         0         0         0         0         0         0
         0         0         0         0         0         0         0         0
         0         0         0         0         0         0         0         0
         0         0         0         0         0         0         0         0
         0         0         0         0         0         0         0         0
         0         0         0         0         0         0         0         0
         0         0         0         0         0         0         0         0
         0         0         0         0         0         0         0         0
         0         0         0         0         0         0         0         0
         0         0         0         0         0         0         0         0
         0         0         0         0         0         0         0         0
         0         0         0         0         0         0         0         0
         0         0         0         0         0         0         0         0
         0         0         0         0         0         0         0         0
         0         0         0         0         0         0         0         0
         0         0         0         0         0         0         0         0
         0         0         0         0         0         0         0         0
         0         0         0         0         0         0         0         0
         0         0         0         0         0         0         0         0
         0         0         0         0         0         0         0         0
         0         0         0         0         0         0         0         0
         0         0         0         0         0         0         0         0
         0         0         0         0         0         0         0         0
         0         0         0         0         0         0         0         0
         0         0         0         0         0         0         0         0
         0         0         0         0         0         0         0         0
         0         0         0         0         0         0         0         0
         0         0         0         0         0         0         0         0
         0         0         0         0         0         0         0         0
         0         0         0         0         0         0         0         0
         0         0         0         0         0         0         0         0
         0         0         0         0         0         0         0         0
         0         0         0         0         0         0         0         0
         0         0         0         0         0         0         0         0
         0         0         0         0         0         0         0         0
         0         0         0         0         0         0         0         0
         0         0         0         0         0         0         0         0
         0         0         0         0         0         0         0         0
         0         0         0         0         0         0         0         0
         0         0         0         0         0         0         0         0
         0         0         0         0         0         0         0         0
         0         0         0         0         0         0         0         0
         0         0         0         0         0         0         0         0
         0         0         0         0         0         0         0         0
         0         0         0         0         0         0         0         0
         0         0         0         0         0         0         0         0
         0         0         0         0         0         0         0         0
         0         0         0         0         0         0         0         0
         0         0         0         0         0         0         0         0
         0         0         0         0         0         0         0         0
         0         0         0         0         0         0         0         0
         0         0         0         0         0         0         0         0
         0         0         0         0         0         0         0         0
         0         0         0         0         0         0         0         0
         0         0         0         0         0         0         0         0
         0         0         0         0         0         0         0         0
         0         0         0         0         0         0         0         0
         0         0         0         0         0         0         0         0
         0         0         0         0         0         0         0         0
         0         0         0         0         0         0         0         0
         0         0         0         0         0         0         0         0
         0         0         0         0         0         0         0         0
         0         0         0         0         0         0         0         0
         0         0         0         0         0         0         0         0
         0         0         0         0         0         0         0         0
         0         0         0         0         0         0         0         0
         0         0         0         0         0         0         0         0
         0         0         0         0         0         0         0         0
         0         0         0         0         0         0         0         0
         0         0         0         0         0         0         0         0
         0         0         0         0         0         0         0         0
         0         0         0         0         0         0         0         0
         0         0         0         0         0         0         0         0
         0         0         0         0         0         0         0         0
         0         0         0         0         0         0         0         0
         0         0         0         0         0         0         0         0
         0         0         0         0         0         0         0         0
         0         0         0         0         0         0         0         0
         0         0         0         0         0         0         0         0
         0         0         0         0         0         0         0         0
         0         0         0         0         0         0         0         0
         0         0         0         0         0         0         0         0
         0         0         0         0         0         0         0         0
         0         0         0         0         0         0         0         0
         0         0         0         0         0         0         0         0
         0         0         0         0         0         0         0         0
         0         0         0         0         0         0         0         0
         0         0         0         0         0         0         0         0
         0         0         0         0         0         0         0         0
         0         0         0         0         0         0         0         0
         0         0         0         0         0         0         0         0
         0         0         0         0         0         0         0         0
         0         0         0         0         0         0         0         0
         0         0         0         0         0         0         0         0
         0         0         0         0         0         0         0         0
         0         0         0         0         0         0         0         0
         0         0         0         0         0         0         0         0
         0         0         0         0         0         0         0         0
         0         0         0         0         0         0         0         0
         0         0         0         0         0         0         0         0
         0         0         0         0         0         0         0         0
         0         0         0         0         0         0         0         0
         0         0         0         0         0         0         0         0
         0         0         0         0         0         0         0         0
         0         0         0         0         0         0         0         0
         0         0         0         0         0         0         0         0
         0         0         0         0         0         0         0         0
         0         0         0         0         0         0         0         0
         0         0         0         0         0         0         0         0
         0         0         0         0         0         0         0         0
         0         0         0         0         0         0         0         0
         0         0         0         0         0         0         0         0
         0         0         0         0         0         0         0         0
         0         0         0         0         0         0         0         0
         0         0         0         0         0         0         0         0
         0         0         0         0         0         0         0         0
         0         0         0         0         0         0         0         0
         0         0         0         0         0         0         0         0
         0         0         0         0         0         0         0         0
         0         0         0         0         0         0         0         0
         0         0         0         0         0         0         0         0
         0         0         0         0         0         0         0         0
         0         0         0         0         0         0         0         0
         0         0         0         0         0         0         0         0
         0         0         0         0         0         0         0         0
         0         0         0         0         0         0         0         0
         0         0         0         0         0         0         0         0
         0         0         0         0         0         0         0         0
         0         0         0         0         0         0         0         0
         0         0         0         0         0         0         0         0
         0         0         0         0         0         0         0         0
         0         0         0         0         0         0         0         0
         0         0         0         0         0         0         0         0
         0         0         0         0         0         0         0         0
         0         0         0         0         0         0         0         0
         0         0         0         0         0         0         0         0
         0         0         0         0         0         0         0         0
         0         0         0         0         0         0         0         0
         0         0         0         0         0         0         0         0
         0         0         0         0         0         0         0         0
         0         0         0         0         0         0         0         0
         0         0         0         0         0         0         0         0
         0         0         0         0         0         0         0         0
         0         0         0         0         0         0         0         0
         0         0         0         0         0         0         0         0
         0         0         0         0         0         0         0         0
         0         0         0         0         0         0         0         0
         0         0         0         0         0         0         0         0
         0         0         0         0         0         0         0         0
         0         0         0         0         0         0         0         0
         0         0         0         0         0         0         0         0
         0         0         0         0         0         0         0         0
         0         0         0         0         0         0         0         0
         0         0         0         0         0         0         0         0
         0         0         0         0         0         0         0         0
         0         0         0         0         0         0         0         0
         0         0         0         0         0         0         0         0
         0         0         0         0         0         0         0         0
         0         0         0         0         0         0         0         0
         0         0         0         0         0         0         0         0
         0         0         0         0         0         0         0         0
         0         0         0         0         0         0         0         0
         0         0         0         0         0         0         0         0
         0         0         0         0         0         0         0         0
         0         0         0         0         0         0         0         0
         0         0         0         0         0         0         0         0
         0         0         0         0         0         0         0         0
         0         0         0         0         0         0         0         0
         0         0         0         0         0         0         0         0
         0         0         0         0         0         0         0         0
         0         0         0         0         0         0         0         0
         0         0         0         0         0         0         0         0
         0         0         0         0         0         0         0         0
         0         0         0         0         0         0         0         0
         0         0         0         0         0         0         0         0
         0         0         0         0         0         0         0         0
         0         0         0         0         0         0         0         0
         0         0         0         0         0         0         0         0
         0         0         0         0         0         0         0         0
         0         0         0         0         0         0         0         0
         0         0         0         0         0         0         0         0
         0         0         0         0         0         0         0         0
         0         0         0         0         0         0         0         0
         0         0         0         0         0         0         0         0
         0         0         0         0         0         0         0         0
         0         0         0         0         0         0         0         0
         0         0         0         0         0         0         0         0
         0         0         0         0         0         0         0         0
         0         0         0         0         0         0         0         0
         0         0         0         0         0         0         0         0
         0         0         0         0         0         0         0         0
         0         0         0         0         0         0         0         0
         0         0         0         0         0         0         0         0
         0         0         0         0         0         0         0         0
         0         0         0         0         0         0         0         0
         0         0         0         0         0         0         0         0
         0         0         0         0         0         0         0         0
         0         0         0         0         0         0         0         0
         0         0         0         0         0         0         0         0
         0         0         0         0         0         0         0         0
         0         0         0         0         0         0         0         0
         0         0         0         0         0         0         0         0
         0         0         0         0         0         0         0         0
         0         0         0         0         0         0         0         0
         0         0         0         0         0         0         0         0
         0         0         0         0         0         0         0         0
         0         0         0         0         0         0         0         0
         0         0         0         0         0         0         0         0
         0         0         0         0         0         0         0         0
         0         0         0         0         0         0         0         0
         0         0         0         0         0         0         0         0
         0         0         0         0         0         0         0         0
         0         0         0         0         0         0         0         0
         0         0         0         0         0         0         0         0
         0         0         0         0         0         0         0         0
         0         0         0         0         0         0         0         0
         0         0         0         0         0         0         0         0
         0         0         0         0         0         0         0         0
         0         0         0         0         0         0         0         0
         0         0         0         0         0         0         0         0
         0         0         0         0         0         0         0         0
         0         0         0         0         0         0         0         0
         0         0         0         0         0         0         0         0
         0         0         0         0         0         0         0         0
         0         0         0         0         0         0         0         0
         0         0         0         0         0         0         0         0
         0         0         0         0         0         0         0         0
         0         0         0         0         0         0         0         0
         0         0         0         0         0         0         0         0
         0         0         0         0         0         0         0         0
         0         0         0         0         0         0         0         0
         0         0         0         0         0         0         0         0
         0         0         0         0         0         0         0         0
         0         0         0         0         0         0         0         0
         0         0         0         0         0         0         0         0
         0         0         0         0         0         0         0         0
         0         0         0         0         0         0         0         0
         0         0         0         0         0         0         0         0
         0         0         0         0         0         0         0         0
         0         0         0         0         0         0         0         0
         0         0         0         0         0         0         0         0
         0         0         0         0         0         0         0         0
         0         0         0         0         0         0         0         0
         0         0         0         0         0         0         0         0
         0         0         0         0         0         0         0         0
         0         0         0         0         0         0         0         0
         0         0         0         0         0         0         0         0
         0         0         0         0         0         0         0         0
         0         0         0         0         0         0         0         0
         0         0         0         0         0         0         0         0
         0         0         0         0         0         0         0         0
         0         0         0         0         0         0         0         0
         0         0         0         0         0         0         0         0
         0         0         0         0         0         0         0         0
         0         0         0         0         0         0         0         0
         0         0         0         0         0         0         0         0
         0         0         0         0         0         0         0         0
         0         0         0         0         0         0         0         0
         0         0         0         0         0         0         0         0
         0         0         0         0         0         0         0         0
         0         0         0         0         0         0         0         0
         0         0         0         0         0         0         0         0
         0         0         0         0         0         0         0         0
         0         0         0         0         0         0         0         0
         0         0         0         0         0         0         0         0
         0         0         0         0         0         0         0         0
         0         0         0         0         0         0         0         0
         0         0         0         0         0         0         0         0
         0         0         0         0         0         0         0         0
         0         0         0         0         0         0         0         0
         0         0         0         0         0         0         0         0
         0         0         0         0         0         0         0         0
         0         0         0         0         0         0         0         0
         0         0         0         0         0         0         0         0
         0         0         0         0         0         0         0         0
         0         0         0         0         0         0         0         0
         0         0         0         0         0         0         0         0
         0         0         0         0         0         0         0         0
         0         0         0         0         0         0         0         0
         0         0         0         0         0         0         0         0
         0         0         0         0         0         0         0         0
         0         0         0         0         0         0         0         0
         0         0         0         0         0         0         0         0
         0         0         0         0         0         0         0         0
         0         0         0         0         0         0         0         0
         0         0         0         0         0         0         0         0
         0         0         0         0         0         0         0         0
         0         0         0         0         0         0         0         0
         0         0         0         0         0         0         0         0
         0         0         0         0         0         0         0         0
         0         0         0         0         0         0         0         0
         0         0         0         0         0         0         0         0
         0         0         0         0         0         0         0         0
         0         0         0         0         0         0         0         0
         0         0         0         0         0         0         0         0
         0         0         0         0         0         0         0         0
         0         0         0         0         0         0         0         0
         0         0         0         0         0         0         0         0
         0         0         0         0         0         0         0         0
         0         0         0         0         0         0         0         0
         0         0         0         0         0         0         0         0
         0         0         0         0         0         0         0         0
         0         0         0         0         0         0         0         0
         0         0         0         0         0         0         0         0
         0         0         0         0         0         0         0         0
         0         0         0         0         0         0         0         0
         0         0         0         0         0         0         0         0
         0         0         0         0         0         0         0         0
         0         0         0         0         0         0         0         0
         0         0         0         0         0         0         0         0
         0         0         0         0         0         0         0         0
         0         0         0         0         0         0         0         0
         0         0         0         0         0         0         0         0
         0         0         0         0         0         0         0         0
         0         0         0         0         0         0         0         0
         0         0         0         0         0         0         0         0
         0         0         0         0         0         0         0         0
         0         0         0         0         0         0         0         0
         0         0         0         0         0         0         0         0
         0         0         0         0         0         0         0         0
         0         0         0         0         0         0         0         0
         0         0         0         0         0         0         0         0
         0         0         0         0         0         0         0         0
         0         0         0         0         0         0         0         0
         0         0         0         0         0         0         0         0
         0         0         0         0         0         0         0         0
         0         0         0         0         0         0         0         0
         0         0         0         0         0         0         0         0
         0         0         0         0         0         0         0         0
         0         0         0         0         0         0         0         0
         0         0         0         0         0         0         0         0
         0         0         0         0         0         0         0         0
         0         0         0         0         0         0         0         0
         0         0         0         0         0         0         0         0
         0         0         0         0         0         0         0         0
         0         0         0         0         0         0         0         0
         0         0         0         0         0         0         0         0
         0         0         0         0         0         0         0         0
         0         0         0         0         0         0         0         0
         0         0         0         0         0         0         0         0
         0         0         0         0         0         0         0         0
         0         0         0         0         0         0         0         0
         0         0         0         0         0         0         0         0
         0         0         0         0         0         0         0         0
         0         0         0         0         0         0         0         0
         0         0         0         0         0         0         0         0
         0         0         0         0         0         0         0         0
         0         0         0         0         0         0         0         0
         0         0         0         0         0         0         0         0
         0         0         0         0         0         0         0         0
         0         0         0         0         0         0         0         0
         0         0         0         0         0         0         0         0
         0         0         0         0         0         0         0         0
         0         0         0         0         0         0         0         0
         0         0         0         0         0         0         0         0
         0         0         0         0         0         0         0         0
         0         0         0         0         0         0         0         0
         0         0         0         0         0         0         0         0
         0         0         0         0         0         0         0         0
         0         0         0         0         0         0         0         0
         0         0         0         0         0         0         0         0
         0         0         0         0         0         0         0         0
         0         0         0         0         0         0         0         0
         0         0         0         0         0         0         0         0
         0         0         0         0         0         0         0         0
         0         0         0         0         0         0         0         0
         0         0         0         0         0         0         0         0
         0         0         0         0         0         0         0         0
         0         0         0         0         0         0         0         0
         0         0         0         0         0         0         0         0
         0         0         0         0         0         0         0         0
         0         0         0         0         0         0         0         0
         0         0         0         0         0         0         0         0
         0         0         0         0         0         0         0         0
         0         0         0         0         0         0         0         0
         0         0         0         0         0         0         0         0
         0         0         0         0         0         0         0         0
         0         0         0         0         0         0         0         0
         0         0         0         0         0         0         0         0
         0         0         0         0         0         0         0         0
         0         0         0         0         0         0         0         0
         0         0         0         0         0         0         0         0
         0         0         0         0         0         0         0         0
         0         0         0         0         0         0         0         0
         0         0         0         0         0         0         0         0
         0         0         0         0         0         0         0         0
         0         0         0         0         0         0         0         0
         0         0         0         0         0         0         0         0
         0         0         0         0         0         0         0         0
         0         0         0         0         0         0         0         0
         0         0         0         0         0         0         0         0
         0         0         0         0         0         0         0         0
         0         0         0         0         0         0         0         0
         0         0         0         0         0         0         0         0
         0         0         0         0         0         0         0         0
         0         0         0         0         0         0         0         0
         0         0         0         0         0         0         0         0
         0         0         0         0         0         0         0         0
         0         0         0         0         0         0         0         0
         0         0         0         0         0         0         0         0
         0         0         0         0         0         0         0         0
         0         0         0         0         0         0         0         0
         0         0         0         0         0         0         0         0
         0         0         0         0         0         0         0         0
         0         0         0         0         0         0         0         0
         0         0         0         0         0         0         0         0
         0         0         0         0         0         0         0         0
         0         0         0         0         0         0         0         0
         0         0         0         0         0         0         0         0
         0         0         0         0         0         0         0         0
         0         0         0         0         0         0         0         0
         0         0         0         0         0         0         0         0
         0         0         0         0         0         0         0         0
         0         0         0         0         0         0         0         0
         0         0         0         0         0         0         0         0
         0         0         0         0         0         0         0         0
         0         0         0         0         0         0         0         0
         0         0         0         0         0         0         0         0
         0         0         0         0         0         0         0         0
         0         0         0         0         0         0         0         0
         0         0         0         0         0         0         0         0
         0         0         0         0         0         0         0         0
         0         0         0         0         0         0         0         0
         0         0         0         0         0         0         0         0
         0         0         0         0         0         0         0         0
         0         0         0         0         0         0         0         0
         0         0         0         0         0         0         0         0
         0         0         0         0         0         0         0         0
         0         0         0         0         0         0         0         0
         0         0         0         0         0         0         0         0
         0         0         0         0         0         0         0         0
         0         0         0         0         0         0         0         0
         0         0         0         0         0         0         0         0
         0         0         0         0         0         0         0         0
         0         0         0         0         0         0         0         0
         0         0         0         0         0         0         0         0
         0         0         0         0         0         0         0         0
         0         0         0         0         0         0         0         0
         0         0         0         0         0         0         0         0
         0         0         0         0         0         0         0         0
         0         0         0         0         0         0         0         0
         0         0         0         0         0         0         0         0
         0         0         0         0         0         0         0         0
         0         0         0         0         0         0         0         0
         0         0         0         0         0         0         0         0
         0         0         0         0         0         0         0         0
         0         0         0         0         0         0         0         0
         0         0         0         0         0         0         0         0
         0         0         0         0         0         0         0         0
         0         0         0         0         0         0         0         0
         0         0         0         0         0         0         0         0
         0         0         0         0         0         0         0         0
         0         0         0         0         0         0         0         0
         0         0         0         0         0         0         0         0
         0         0         0         0         0         0         0         0
         0         0         0         0         0         0         0         0
         0         0         0         0         0         0         0         0
         0         0         0         0         0         0         0         0
         0         0         0         0         0         0         0         0
         0         0         0         0         0         0         0         0
         0         0         0         0         0         0         0         0
         0         0         0         0         0         0         0         0
         0         0         0         0         0         0         0         0
         0         0         0         0         0         0         0         0
         0         0         0         0         0         0         0         0
         0         0         0         0         0         0         0         0
         0         0         0         0         0         0         0         0
         0         0         0         0         0         0         0         0
         0         0         0         0         0         0         0         0
         0         0         0         0         0         0         0         0
         0         0         0         0         0         0         0         0
         0         0         0         0         0         0         0         0
         0         0         0         0         0         0         0         0
         0         0         0         0         0         0         0         0
         0         0         0         0         0         0         0         0
         0         0         0         0         0         0         0         0
         0         0         0         0         0         0         0         0
         0         0         0         0         0         0         0         0
         0         0         0         0         0         0         0         0
         0         0         0         0         0         0         0         0
         0         0         0         0         0         0         0         0
         0         0         0         0         0         0         0         0
         0         0         0         0         0         0         0         0
         0         0         0         0         0         0         0         0
         0         0         0         0         0         0         0         0
         0         0         0         0         0         0         0         0
         0         0         0         0         0         0         0         0
         0         0         0         0         0         0         0         0
         0         0         0         0         0         0         0         0
         0         0         0         0         0         0         0         0
         0         0         0         0         0         0         0         0
         0         0         0         0         0         0         0         0
         0         0         0         0         0         0         0         0
         0         0         0         0         0         0         0         0
         0         0         0         0         0         0         0         0
         0         0         0         0         0         0         0         0
         0         0         0         0         0         0         0         0
         0         0         0         0         0         0         0         0
         0         0         0         0         0         0         0         0
         0         0         0         0         0         0         0         0
         0         0         0         0         0         0         0         0
         0         0         0         0         0         0         0         0
         0         0         0         0         0         0         0         0
         0         0         0         0         0         0         0         0
         0         0         0         0         0         0         0         0
         0         0         0         0         0         0         0         0
         0         0         0         0         0         0         0         0
         0         0         0         0         0         0         0         0
         0         0         0         0         0         0         0         0
         0         0         0         0         0         0         0         0
         0         0         0         0         0         0         0         0
         0         0         0         0         0         0         0         0
         0         0         0         0         0         0         0         0
         0         0         0         0         0         0         0         0
         0         0         0         0         0         0         0         0
         0         0         0         0         0         0         0         0
         0         0         0         0         0         0         0         0
         0         0         0         0         0         0         0         0
         0         0         0         0         0         0         0         0
         0         0         0         0         0         0         0         0
         0         0         0         0         0         0         0         0
         0         0         0         0         0         0         0         0
         0         0         0         0         0         0         0         0
         0         0         0         0         0         0         0         0
         0         0         0         0         0         0         0         0
         0         0         0         0         0         0         0         0
         0         0         0         0         0         0         0         0
         0         0         0         0         0         0         0         0
         0         0         0         0         0         0         0         0
         0         0         0         0         0         0         0         0
         0         0         0         0         0         0         0         0
         0         0         0         0         0         0         0         0
         0         0         0         0         0         0         0         0
         0         0         0         0         0         0         0         0
         0         0         0         0         0         0         0         0
         0         0         0         0         0         0         0         0
         0         0         0         0         0         0         0         0
         0         0         0         0         0         0         0         0
         0         0         0         0         0         0         0         0
         0         0         0         0         0         0         0         0
         0         0         0         0         0         0         0         0
         0         0         0         0         0         0         0         0
         0         0         0         0         0         0         0         0
         0         0         0         0         0         0         0         0
         0         0         0         0         0         0         0         0
         0         0         0         0         0         0         0         0
         0         0         0         0         0         0         0         0
         0         0         0         0         0         0         0         0
         0         0         0         0         0         0         0         0
         0         0         0         0         0         0         0         0
         0         0         0         0         0         0         0         0
         0         0         0         0         0         0         0         0
         0         0         0         0         0         0         0         0
         0         0         0         0         0         0         0         0
         0         0         0         0         0         0         0         0
         0         0         0         0         0         0         0         0
         0         0         0         0         0         0         0         0
         0         0         0         0         0         0         0         0
         0         0         0         0         0         0         0         0
         0         0         0         0         0         0         0         0
         0         0         0         0         0         0         0         0
         0         0         0         0         0         0         0         0
         0         0         0         0         0         0         0         0
         0         0         0         0         0         0         0         0
         0         0         0         0         0         0         0         0
         0         0         0         0         0         0         0         0
         0         0         0         0         0         0         0         0
         0         0         0         0         0         0         0         0
         0         0         0         0         0         0         0         0
         0         0         0         0         0         0         0         0
         0         0         0         0         0         0         0         0
         0         0         0         0         0         0         0         0
         0         0         0         0         0         0         0         0
         0         0         0         0         0         0         0         0
         0         0         0         0         0         0         0         0
         0         0         0         0         0         0         0         0
         0         0         0         0         0         0         0         0
         0         0         0         0         0         0         0         0
         0         0         0         0         0         0         0         0
         0         0         0         0         0         0         0         0
         0         0         0         0         0         0         0         0
         0         0         0         0         0         0         0         0
         0         0         0         0         0         0         0         0
         0         0         0         0         0         0         0         0
         0         0         0         0         0         0         0         0
         0         0         0         0         0         0         0         0
         0         0         0         0         0         0         0         0
         0         0         0         0         0         0         0         0
         0         0         0         0         0         0         0         0
         0         0         0         0         0         0         0         0
         0         0         0         0         0         0         0         0
         0         0         0         0         0         0         0         0
         0         0         0         0         0         0         0         0
         0         0         0         0         0         0         0         0
         0         0         0         0         0         0         0         0
         0         0         0         0         0         0         0         0
         0         0         0         0         0         0         0         0
         0         0         0         0         0         0         0         0
         0         0         0         0         0         0         0         0
         0         0         0         0         0         0         0         0
         0         0         0         0         0         0         0         0
         0         0         0         0         0         0         0         0
         0         0         0         0         0         0         0         0
         0         0         0         0         0         0         0         0
         0         0         0         0         0         0         0         0
         0         0         0         0         0         0         0         0
         0         0         0         0         0         0         0         0
         0         0         0         0         0         0         0         0
         0         0         0         0         0         0         0         0
         0         0         0         0         0         0         0         0
         0         0         0         0         0         0         0         0
         0         0         0         0         0         0         0         0
         0         0         0         0         0         0         0         0
         0         0         0         0         0         0         0         0
         0         0         0         0         0         0         0         0
         0         0         0         0         0         0         0         0
         0         0         0         0         0         0         0         0
         0         0         0         0         0         0         0         0
         0         0         0         0         0         0         0         0
         0         0         0         0         0         0         0         0
         0         0         0         0         0         0         0         0
         0         0         0         0         0         0         0         0
         0         0         0         0         0         0         0         0
         0         0         0         0         0         0         0         0
         0         0         0         0         0         0         0         0
         0         0         0         0         0         0         0         0
         0         0         0         0         0         0         0         0
         0         0         0         0         0         0         0         0
         0         0         0         0         0         0         0         0
         0         0         0         0         0         0         0         0
         0         0         0         0         0         0         0         0
         0         0         0         0         0         0         0         0
         0         0         0         0         0         0         0         0
         0         0         0         0         0         0         0         0
         0         0         0         0         0         0         0         0
         0         0         0         0         0         0         0         0
         0         0         0         0         0         0         0         0
         0         0         0         0         0         0         0         0
         0         0         0         0         0         0         0         0
         0         0         0         0         0         0         0         0
         0         0         0         0         0         0         0         0
         0         0         0         0         0         0         0         0
         0         0         0         0         0         0         0         0
         0         0         0         0         0         0         0         0
         0         0         0         0         0         0         0         0
         0         0         0         0         0         0         0         0
         0         0         0         0         0         0         0         0
         0         0         0         0         0         0         0         0
         0         0         0         0         0         0         0         0
         0         0         0         0         0         0         0         0
         0         0         0         0         0         0         0         0
         0         0         0         0         0         0         0         0
         0         0         0         0         0         0         0         0
         0         0         0         0         0         0         0         0
         0         0         0         0         0         0         0         0
         0         0         0         0         0         0         0         0
         0         0         0         0         0         0         0         0
         0         0         0         0         0         0         0         0
         0         0         0         0         0         0         0         0
         0         0         0         0         0         0         0         0
         0         0         0         0         0         0         0         0
         0         0         0         0         0         0         0         0
         0         0         0         0         0         0         0         0
         0         0         0         0         0         0         0         0
         0         0         0         0         0         0         0         0
         0         0         0         0         0         0         0         0
         0         0         0         0         0         0         0         0
         0         0         0         0         0         0         0         0
         0         0         0         0         0         0         0         0
         0         0         0         0         0         0         0         0
         0         0         0         0         0         0         0         0
         0         0         0         0         0         0         0         0
         0         0         0         0         0         0         0         0
         0         0         0         0         0         0         0         0
         0         0         0         0         0         0         0         0
         0         0         0         0         0         0         0         0
         0         0         0         0         0         0         0         0
         0         0         0         0         0         0         0         0
         0         0         0         0         0         0         0         0
         0         0         0         0         0         0         0         0
         0         0         0         0         0         0         0         0
         0         0         0         0         0         0         0         0
         0         0         0         0         0         0         0         0
         0         0         0         0         0         0         0         0
         0         0         0         0         0         0         0         0
         0         0         0         0         0         0         0         0
         0         0         0         0         0         0         0         0
         0         0         0         0         0         0         0         0
         0         0         0         0         0         0         0         0
         0         0         0         0         0         0         0         0
         0         0         0         0         0         0         0         0
         0         0         0         0         0         0         0         0
         0         0         0         0         0         0         0         0
         0         0         0         0         0         0         0         0
         0         0         0         0         0         0         0         0
         0         0         0         0         0         0         0         0
         0         0         0         0         0         0         0         0
         0         0         0         0         0         0         0         0
         0         0         0         0         0         0         0         0
         0         0         0         0         0         0         0         0
         0         0         0         0         0         0         0         0
         0         0         0         0         0         0         0         0
         0         0         0         0         0         0         0         0
         0         0         0         0         0         0         0         0
         0         0         0         0         0         0         0         0
         0         0         0         0         0         0         0         0
         0         0         0         0         0         0         0         0
         0         0         0         0         0         0         0         0
         0         0         0         0         0         0         0         0
         0         0         0         0         0         0         0         0
         0         0         0         0         0         0         0         0
         0         0         0         0         0         0         0         0
         0         0         0         0         0         0         0         0
         0         0         0         0         0         0         0         0
         0         0         0         0         0         0         0         0
         0         0         0         0         0         0         0         0
         0         0         0         0         0         0         0         0
         0         0         0         0         0         0         0         0
         0         0         0         0         0         0         0         0
         0         0         0         0         0         0         0         0
         0         0         0         0         0         0         0         0
         0         0         0         0         0         0         0         0
         0         0         0         0         0         0         0         0
         0         0         0         0         0         0         0         0
         0         0         0         0         0         0         0         0
         0         0         0         0         0         0         0         0
         0         0         0         0         0         0         0         0
         0         0         0         0         0         0         0         0
         0         0         0         0         0         0         0         0
         0         0         0         0         0         0         0         0
         0         0         0         0         0         0         0         0
         0         0         0         0         0         0         0         0
         0         0         0         0         0         0         0         0
         0         0         0         0         0         0         0         0
         0         0         0         0         0         0         0         0
         0         0         0         0         0         0         0         0
         0         0         0         0         0         0         0         0
         0         0         0         0         0         0         0         0
         0         0         0         0         0         0         0         0
         0         0         0         0         0         0         0         0
         0         0         0         0         0         0         0         0
         0         0         0         0         0         0         0         0
         0         0         0         0         0         0         0         0
         0         0         0         0         0         0         0         0
         0         0         0         0         0         0         0         0
         0         0         0         0         0         0         0         0
         0         0         0         0         0         0         0         0
         0         0         0         0         0         0         0         0
         0         0         0         0         0         0         0         0
         0         0         0         0         0         0         0         0
         0         0         0         0         0         0         0         0
         0         0         0         0         0         0         0         0
         0         0         0         0         0         0         0         0
         0         0         0         0         0         0         0         0
         0         0         0         0         0         0         0         0
         0         0         0         0         0         0         0         0
         0         0         0         0         0         0         0         0
         0         0         0         0         0         0         0         0
         0         0         0         0         0         0         0         0
         0         0         0         0         0         0         0         0
         0         0         0         0         0         0         0         0
         0         0         0         0         0         0         0         0
         0         0         0         0         0         0         0         0
         0         0         0         0         0         0         0         0
         0         0         0         0         0         0         0         0
         0         0         0         0         0         0         0         0
         0         0         0         0         0         0         0         0
         0         0         0         0         0         0         0         0
         0         0         0         0         0         0         0         0
         0         0         0         0         0         0         0         0
         0         0         0         0         0         0         0         0
         0         0         0         0         0         0         0         0
         0         0         0         0         0         0         0         0
         0         0         0         0         0         0         0         0
         0         0         0         0         0         0         0         0
         0         0         0         0         0         0         0         0
         0         0         0         0         0         0         0         0
         0         0         0         0         0         0         0         0
         0         0         0         0         0         0         0         0
         0         0         0         0         0         0         0         0
         0         0         0         0         0         0         0         0
         0         0         0         0         0         0         0         0
         0         0         0         0         0         0         0         0
         0         0         0         0         0         0         0         0
         0         0         0         0         0         0         0         0
         0         0         0         0         0         0         0         0
         0         0         0         0         0         0         0         0
         0         0         0         0         0         0         0         0
         0         0         0         0         0         0         0         0
         0         0         0         0         0         0         0         0
         0         0         0         0         0         0         0         0
         0         0         0         0         0         0         0         0
         0         0         0         0         0         0         0         0
         0         0         0         0         0         0         0         0
         0         0         0         0         0         0         0         0
         0         0         0         0         0         0         0         0
         0         0         0         0         0         0         0         0
         0         0         0         0         0         0         0         0
         0         0         0         0         0         0         0         0
         0         0         0         0         0         0         0         0
         0         0         0         0         0         0         0         0
         0         0         0         0         0         0         0         0
         0         0         0         0         0         0         0         0
         0         0         0         0         0         0         0         0
         0         0         0         0         0         0         0         0
         0         0         0         0         0         0         0         0
         0         0         0         0         0         0         0         0
         0         0         0         0         0         0         0         0
         0         0         0         0         0         0         0         0
         0         0         0         0         0         0         0         0
         0         0         0         0         0         0         0         0
         0         0         0         0         0         0         0         0
         0         0         0         0         0         0         0         0
         0         0         0         0         0         0         0         0
         0         0         0         0         0         0         0         0
         0         0         0         0         0         0         0         0
         0         0         0         0         0         0         0         0
         0         0         0         0         0         0         0         0
         0         0         0         0         0         0         0         0
         0         0         0         0         0         0         0         0
         0         0         0         0         0         0         0         0
         0         0         0         0         0         0         0         0
         0         0         0         0         0         0         0         0
         0         0         0         0         0         0         0         0
         0         0         0         0         0         0         0         0
         0         0         0         0         0         0         0         0
         0         0         0         0         0         0         0         0
         0         0         0         0         0         0         0         0
         0         0         0         0         0         0         0         0
         0         0         0         0         0         0         0         0
         0         0         0         0         0         0         0         0
         0         0         0         0         0         0         0         0
         0         0         0         0         0         0         0         0
         0         0         0         0         0         0         0         0
         0         0         0         0         0         0         0         0
         0         0         0         0         0         0         0         0
         0         0         0         0         0         0         0         0
         0         0         0         0         0         0         0         0
         0         0         0         0         0         0         0         0
         0         0         0         0         0         0         0         0
         0         0         0         0         0         0         0         0
         0         0         0         0         0         0         0         0
         0         0         0         0         0         0         0         0
         0         0         0         0         0         0         0         0
         0         0         0         0         0         0         0         0
         0         0         0         0         0         0         0         0
         0         0         0         0         0         0         0         0
         0         0         0         0         0         0         0         0
         0         0         0         0         0         0         0         0
         0         0         0         0         0         0         0         0
         0         0         0         0         0         0         0         0
         0         0         0         0         0         0         0         0
         0         0         0         0         0         0         0         0
         0         0         0         0         0         0         0         0
         0         0         0         0         0         0         0         0
         0         0         0         0         0         0         0         0
         0         0         0         0         0         0         0         0
         0         0         0         0         0         0         0         0
         0         0         0         0         0         0         0         0
         0         0         0         0         0         0         0         0
         0         0         0         0         0         0         0         0
         0         0         0         0         0         0         0         0
         0         0         0         0         0         0         0         0
         0         0         0         0         0         0         0         0
         0         0         0         0         0         0         0         0
         0         0         0         0         0         0         0         0
         0         0         0         0         0         0         0         0
         0         0         0         0         0         0         0         0
         0         0         0         0         0         0         0         0
         0         0         0         0         0         0         0         0
         0         0         0         0         0         0         0         0
         0         0         0         0         0         0         0         0
         0         0         0         0         0         0         0         0
         0         0         0         0         0         0         0         0
         0         0         0         0         0         0         0         0
         0         0         0         0         0         0         0         0
         0         0         0         0         0         0         0         0
         0         0         0         0         0         0         0         0
         0         0         0         0         0         0         0         0
         0         0         0         0         0         0         0         0
         0         0         0         0         0         0         0         0
         0         0         0         0         0         0         0         0
         0         0         0         0         0         0         0         0
         0         0         0         0         0         0         0         0
         0         0         0         0         0         0         0         0
         0         0         0         0         0         0         0         0
         0         0         0         0         0         0         0         0
         0         0         0         0         0         0         0         0
         0         0         0         0         0         0         0         0
         0         0         0         0         0         0         0         0
         0         0         0         0         0         0         0         0
         0         0         0         0         0         0         0         0
         0         0         0         0         0         0         0         0
         0         0         0         0         0         0         0         0
         0         0         0         0         0         0         0         0
         0         0         0         0         0         0         0         0
         0         0         0         0         0         0         0         0
         0         0         0         0         0         0         0         0
         0         0         0         0         0         0         0         0
         0         0         0         0         0         0         0         0
         0         0         0         0         0         0         0         0
         0         0         0         0         0         0         0         0
         0         0         0         0         0         0         0         0
         0         0         0         0         0         0         0         0
         0         0         0         0         0         0         0         0
         0         0         0         0         0         0         0         0
         0         0         0         0         0         0         0         0
         0         0         0         0         0         0         0         0
         0         0         0         0         0         0         0         0
         0         0         0         0         0         0         0         0
         0         0         0         0         0         0         0         0
         0         0         0         0         0         0         0         0
         0         0         0         0         0         0         0         0
         0         0         0         0         0         0         0         0
         0         0         0         0         0         0         0         0
         0         0         0         0         0         0         0         0
         0         0         0         0         0         0         0         0
         0         0         0         0         0         0         0         0
         0         0         0         0         0         0         0         0
         0         0         0         0         0         0         0         0
         0         0         0         0         0         0         0         0
         0         0         0         0         0         0         0         0
         0         0         0         0         0         0         0         0
         0         0         0         0         0         0         0         0
         0         0         0         0         0         0         0         0
         0         0         0         0         0         0         0         0
         0         0         0         0         0         0         0         0
         0         0         0         0         0         0         0         0
         0         0         0         0         0         0         0         0
         0         0         0         0         0         0         0         0
         0         0         0         0         0         0         0         0
         0         0         0         0         0         0         0         0
         0         0         0         0         0         0         0         0
         0         0         0         0         0         0         0         0
         0         0         0         0         0         0         0         0
         0         0         0         0         0         0         0         0
         0         0         0         0         0         0         0         0
         0         0         0         0         0         0         0         0
         0         0         0         0         0         0         0         0
         0         0         0         0         0         0         0         0
         0         0         0         0         0         0         0         0
         0         0         0         0         0         0         0         0
         0         0         0         0         0         0         0         0
         0         0         0         0         0         0         0         0
         0         0         0         0         0         0         0         0
         0         0         0         0         0         0         0         0
         0         0         0         0         0         0         0         0
         0         0         0         0         0         0         0         0
         0         0         0         0         0         0         0         0
         0         0         0         0         0         0         0         0
         0         0         0         0         0         0         0         0
         0         0         0         0         0         0         0         0
         0         0         0         0         0         0         0         0
         0         0         0         0         0         0         0         0
         0         0         0         0         0         0         0         0
         0         0         0         0         0         0         0         0
         0         0         0         0         0         0         0         0
         0         0         0         0         0         0         0         0
         0         0         0         0         0         0         0         0
         0         0         0         0         0         0         0         0
         0         0         0         0         0         0         0         0
         0         0         0         0         0         0         0         0
         0         0         0         0         0         0         0         0
         0         0         0         0         0         0         0         0
         0         0         0         0         0         0         0         0
         0         0         0         0         0         0         0         0
         0         0         0         0         0         0         0         0
         0         0         0         0         0         0         0         0
         0         0         0         0         0         0         0         0
         0         0         0         0         0         0         0         0
         0         0         0         0         0         0         0         0
         0         0         0         0         0         0         0         0
         0         0         0         0         0         0         0         0
         0         0         0         0         0         0         0         0
         0         0         0         0         0         0         0         0
         0         0         0         0         0         0         0         0
         0         0         0         0         0         0         0         0
         0         0         0         0         0         0         0         0
         0         0         0         0         0         0         0         0
         0         0         0         0         0         0         0         0
         0         0         0         0         0         0         0         0
         0         0         0         0         0         0         0         0
         0         0         0         0         0         0         0         0
         0         0         0         0         0         0         0         0
         0         0         0         0         0         0         0         0
         0         0         0         0         0         0         0         0
         0         0         0         0         0         0         0         0
         0         0         0         0         0         0         0         0
         0         0         0         0         0         0         0         0
         0         0         0         0         0         0         0         0
         0         0         0         0         0         0         0         0
         0         0         0         0         0         0         0         0
         0         0         0         0         0         0         0         0
         0         0         0         0         0         0         0         0
         0         0         0         0         0         0         0         0
         0         0         0         0         0         0         0         0
         0         0         0         0         0         0         0         0
         0         0         0         0         0         0         0         0
         0         0         0         0         0         0         0         0
         0         0         0         0         0         0         0         0
         0         0         0         0         0         0         0         0
         0         0         0         0         0         0         0         0
         0         0         0         0         0         0         0         0
         0         0         0         0         0         0         0         0
         0         0         0         0         0         0         0         0
         0         0         0         0         0         0         0         0
         0         0         0         0         0         0         0         0
         0         0         0         0         0         0         0         0
         0         0         0         0         0         0         0         0
         0         0         0         0         0         0         0         0
         0         0         0         0         0         0         0         0
         0         0         0         0         0         0         0         0
         0         0         0         0         0         0         0         0
         0         0         0         0         0         0         0         0
         0         0         0         0         0         0         0         0
         0         0         0         0         0         0         0         0
         0         0         0         0         0         0         0         0
         0         0         0         0         0         0         0         0
         0         0         0         0         0         0         0         0
         0         0         0         0         0         0         0         0
         0         0         0         0         0         0         0         0
         0         0         0         0         0         0         0         0
         0         0         0         0         0         0         0         0
         0         0         0         0         0         0         0         0
         0         0         0         0         0         0         0         0
         0         0         0         0         0         0         0         0
         0         0         0         0         0         0         0         0
         0         0         0         0         0         0         0         0
         0         0         0         0         0         0         0         0
         0         0         0         0         0         0         0         0
         0         0         0         0         0         0         0         0
         0         0         0         0         0         0         0         0
         0         0         0         0         0         0         0         0
         0         0         0         0         0         0         0         0
         0         0         0         0         0         0         0         0
         0         0         0         0         0         0         0         0
         0         0         0         0         0         0         0         0
         0         0         0         0         0         0         0         0
         0         0         0         0         0         0         0         0
         0         0         0         0         0         0         0         0
         0         0         0         0         0         0         0         0
         0         0         0         0         0         0         0         0
         0         0         0         0         0         0         0         0
         0         0         0         0         0         0         0         0
         0         0         0         0         0         0         0         0
         0         0         0         0         0         0         0         0
         0         0         0         0         0         0         0         0
         0         0         0         0         0         0         0         0
         0         0         0         0         0         0         0         0
         0         0         0         0         0         0         0         0
         0         0         0         0         0         0         0         0
         0         0         0         0         0         0         0         0
         0         0         0         0         0         0         0         0
         0         0         0         0         0         0         0         0
         0         0         0         0         0         0         0         0
         0         0         0         0         0         0         0         0
         0         0         0         0         0         0         0         0
         0         0         0         0         0         0         0         0
         0         0         0         0         0         0         0         0
         0         0         0         0         0         0         0         0
         0         0         0         0         0         0         0         0
         0         0         0         0         0         0         0         0
         0         0         0         0         0         0         0         0
         0         0         0         0         0         0         0         0
         0         0         0         0         0         0         0         0
         0         0         0         0         0         0         0         0
         0         0         0         0         0         0         0         0
         0         0         0         0         0         0         0         0
         0         0         0         0         0         0         0         0
         0         0         0         0         0         0         0         0
         0         0         0         0         0         0         0         0
         0         0         0         0         0         0         0         0
         0         0         0         0         0         0         0         0
         0         0         0         0         0         0         0         0
         0         0         0         0         0         0         0         0
         0         0         0         0         0         0         0         0
         0         0         0         0         0         0         0         0
         0         0         0         0         0         0         0         0
         0         0         0         0         0         0         0         0
         0         0         0         0         0         0         0         0
         0         0         0         0         0         0         0         0
         0         0         0         0         0         0         0         0
         0         0         0         0         0         0         0         0
         0         0         0         0         0         0         0         0
         0         0         0         0         0         0         0         0
         0         0         0         0         0         0         0         0
         0         0         0         0         0         0         0         0
         0         0         0         0         0         0         0         0
         0         0         0         0         0         0         0         0
         0         0         0         0         0         0         0         0
         0         0         0         0         0         0         0         0
         0         0         0         0         0         0         0         0
         0         0         0         0         0         0         0         0
         0         0         0         0         0         0         0         0
         0         0         0         0         0         0         0         0
         0         0         0         0         0         0         0         0
         0         0         0         0         0         0         0         0
         0         0         0         0         0         0         0         0
         0         0         0         0         0         0         0         0
         0         0         0         0         0         0         0         0
         0         0         0         0         0         0         0         0
         0         0         0         0         0         0         0         0
         0         0         0         0         0         0         0         0
         0         0         0         0         0         0         0         0
         0         0         0         0         0         0         0         0
         0         0         0         0         0         0         0         0
         0         0         0         0         0         0         0         0
         0         0         0         0         0         0         0         0
         0         0         0         0         0         0         0         0
         0         0         0         0         0         0         0         0
         0         0         0         0         0         0         0         0
         0         0         0         0         0         0         0         0
         0         0         0         0         0         0         0         0
         0         0         0         0         0         0         0         0
         0         0         0         0         0         0         0         0
         0         0         0         0         0         0         0         0
         0         0         0         0         0         0         0         0
         0         0         0         0         0         0         0         0
         0         0         0         0         0         0         0         0
         0         0         0         0         0         0         0         0
         0         0         0         0         0         0         0         0
         0         0         0         0         0         0         0         0
         0         0         0         0         0         0         0         0
         0         0         0         0         0         0         0         0
         0         0         0         0         0         0         0         0
         0         0         0         0         0         0         0         0
         0         0         0         0         0         0         0         0
         0         0         0         0         0         0         0         0
         0         0         0         0         0         0         0         0
         0         0         0         0         0         0         0         0
         0         0         0         0         0         0         0         0
         0         0         0         0         0         0         0         0
         0         0         0         0         0         0         0         0
         0         0         0         0         0         0         0         0
         0         0         0         0         0         0         0         0
         0         0         0         0         0         0         0         0
         0         0         0         0         0         0         0         0
         0         0         0         0         0         0         0         0
         0         0         0         0         0         0         0         0
         0         0         0         0         0         0         0         0
         0         0         0         0         0         0         0         0
         0         0         0         0         0         0         0         0
         0         0         0         0         0         0         0         0
         0         0         0         0         0         0         0         0
         0         0         0         0         0         0         0         0
         0         0         0         0         0         0         0         0
         0         0         0         0         0         0         0         0
         0         0         0         0         0         0         0         0
         0         0         0         0         0         0         0         0
         0         0         0         0         0         0         0         0
         0         0         0         0         0         0         0         0
         0         0         0         0         0         0         0         0
         0         0         0         0         0         0         0         0
         0         0         0         0         0         0         0         0
         0         0         0         0         0         0         0         0
         0         0         0         0         0         0         0         0
         0         0         0         0         0         0         0         0
         0         0         0         0         0         0         0         0
         0         0         0         0         0         0         0         0
         0         0         0         0         0         0         0         0
         0         0         0         0         0         0         0         0
         0         0         0         0         0         0         0         0
         0         0         0         0         0         0         0         0
         0         0         0         0         0         0         0         0
         0         0         0         0         0         0         0         0
         0         0         0         0         0         0         0         0
         0         0         0         0         0         0         0         0
         0         0         0         0         0         0         0         0
         0         0         0         0         0         0         0         0
         0         0         0         0         0         0         0         0
         0         0         0         0         0         0         0         0
         0         0         0         0         0         0         0         0
         0         0         0         0         0         0         0         0
         0         0         0         0         0         0         0         0
         0         0         0         0         0         0         0         0
         0         0         0         0         0         0         0         0
         0         0         0         0         0         0         0         0
         0         0         0         0         0         0         0         0
         0         0         0         0         0         0         0         0
         0         0         0         0         0         0         0         0
         0         0         0         0         0         0         0         0
         0         0         0         0         0         0         0         0
         0         0         0         0         0         0         0         0
         0         0         0         0         0         0         0         0
         0         0         0         0         0         0         0         0
         0         0         0         0         0         0         0         0
         0         0         0         0         0         0         0         0
         0         0         0         0         0         0         0         0
         0         0         0         0         0         0         0         0
         0         0         0         0         0         0         0         0
         0         0         0         0         0         0         0         0
         0         0         0         0         0         0         0         0
         0         0         0         0         0         0         0         0
         0         0         0         0         0         0         0         0
         0         0         0         0         0         0         0         0
         0         0         0         0         0         0         0         0
         0         0         0         0         0         0         0         0
         0         0         0         0         0         0         0         0
         0         0         0         0         0         0         0         0
         0         0         0         0         0         0         0         0
         0         0         0         0         0         0         0         0
         0         0         0         0         0         0         0         0
         0         0         0         0         0         0         0         0
         0         0         0         0         0         0         0         0
         0         0         0         0         0         0         0         0
         0         0         0         0         0         0         0         0
         0         0         0         0         0         0         0         0
         0         0         0         0         0         0         0         0
         0         0         0         0         0         0         0         0
         0         0         0         0         0         0         0         0
         0         0         0         0         0         0         0         0
         0         0         0         0         0         0         0         0
         0         0         0         0         0         0         0         0
         0         0         0         0         0         0         0         0
         0         0         0         0         0         0         0         0
         0         0         0         0         0         0         0         0
         0         0         0         0         0         0         0         0
         0         0         0         0         0         0         0         0
         0         0         0         0         0         0         0         0
         0         0         0         0         0         0         0         0
         0         0         0         0         0         0         0         0
         0         0         0         0         0         0         0         0
         0         0         0         0         0         0         0         0
         0         0         0         0         0         0         0         0
         0         0         0         0         0         0         0         0
         0         0         0         0         0         0         0         0
         0         0         0         0         0         0         0         0
         0         0         0         0         0         0         0         0
         0         0         0         0         0         0         0         0
         0         0         0         0         0         0         0         0
         0         0         0         0         0         0         0         0
         0         0         0         0         0         0         0         0
         0         0         0         0         0         0         0         0
         0         0         0         0         0         0         0         0
         0         0         0         0         0         0         0         0
         0         0         0         0         0         0         0         0
         0         0         0         0         0         0         0         0
         0         0         0         0         0         0         0         0
         0         0         0         0         0         0         0         0
         0         0         0         0         0         0         0         0
         0         0         0         0         0         0         0         0
         0         0         0         0         0         0         0         0
         0         0         0         0         0         0         0         0
         0         0         0         0         0         0         0         0
         0         0         0         0         0         0         0         0
         0         0         0         0         0         0         0         0
         0         0         0         0         0         0         0         0
         0         0         0         0         0         0         0         0
         0         0         0         0         0         0         0         0
         0         0         0         0         0         0         0         0
         0         0         0         0         0         0         0         0
         0         0         0         0         0         0         0         0
         0         0         0         0         0         0         0         0
         0         0         0         0         0         0         0         0
         0         0         0         0         0         0         0         0
         0         0         0         0         0         0         0         0
         0         0         0         0         0         0         0         0
         0         0         0         0         0         0         0         0
         0         0         0         0         0         0         0         0
         0         0         0         0         0         0         0         0
         0         0         0         0         0         0         0         0
         0         0         0         0         0         0         0         0
         0         0         0         0         0         0         0         0
         0         0         0         0         0         0         0         0
         0         0         0         0         0         0         0         0
         0         0         0         0         0         0         0         0
         0         0         0         0         0         0         0         0
         0         0         0         0         0         0         0         0
         0         0         0         0         0         0         0         0
         0         0         0         0         0         0         0         0
         0         0         0         0         0         0         0         0
         0         0         0         0         0         0         0         0
         0         0         0         0         0         0         0         0
         0         0         0         0         0         0         0         0
         0         0         0         0         0         0         0         0
         0         0         0         0         0         0         0         0
         0         0         0         0         0         0         0         0
         0         0         0         0         0         0         0         0
         0         0         0         0         0         0         0         0
         0         0         0         0         0         0         0         0
         0         0         0         0         0         0         0         0
         0         0         0         0         0         0         0         0
         0         0         0         0         0         0         0         0
         0         0         0         0         0         0         0         0
         0         0         0         0         0         0         0         0
         0         0         0         0         0         0         0         0
         0         0         0         0         0         0         0         0
         0         0         0         0         0         0         0         0
         0         0         0         0         0         0         0         0
         0         0         0         0         0         0         0         0
         0         0         0         0         0         0         0         0
         0         0         0         0         0         0         0         0
         0         0         0         0         0         0         0         0
         0         0         0         0         0         0         0         0
         0         0         0         0         0         0         0         0
         0         0         0         0         0         0         0         0
         0         0         0         0         0         0         0         0
         0         0         0         0         0         0         0         0
         0         0         0         0         0         0         0         0
         0         0         0         0         0         0         0         0
         0         0         0         0         0         0         0         0
         0         0         0         0         0         0         0         0
         0         0         0         0         0         0         0         0
         0         0         0         0         0         0         0         0
         0         0         0         0         0         0         0         0
         0         0         0         0         0         0         0         0
         0         0         0         0         0         0         0         0
         0         0         0         0         0         0         0         0
         0         0         0         0         0         0         0         0
         0         0         0         0         0         0         0         0
         0         0         0         0         0         0         0         0
         0         0         0         0         0         0         0         0
         0         0         0         0         0         0         0         0
         0         0         0         0         0         0         0         0
         0         0         0         0         0         0         0         0
         0         0         0         0         0         0         0         0
         0         0         0         0         0         0         0         0
         0         0         0         0         0         0         0         0
         0         0         0         0         0         0         0         0
         0         0         0         0         0         0         0         0
         0         0         0         0         0         0         0         0
         0         0         0         0         0         0         0         0
         0         0         0         0         0         0         0         0
         0         0         0         0         0         0         0         0
         0         0         0         0         0         0         0         0
         0         0         0         0         0         0         0         0
         0         0         0         0         0         0         0         0
         0         0         0         0         0         0         0         0
         0         0         0         0         0         0         0         0
         0         0         0         0         0         0         0         0
         0         0         0         0         0         0         0         0
         0         0         0         0         0         0         0         0
         0         0         0         0         0         0         0         0
         0         0         0         0         0         0         0         0
         0         0         0         0         0         0         0         0
         0         0         0         0         0         0         0         0
         0         0         0         0         0         0         0         0
         0         0         0         0         0         0         0         0
         0         0         0         0         0         0         0         0
         0         0         0         0         0         0         0         0
         0         0         0         0         0         0         0         0
         0         0         0         0         0         0         0         0
         0         0         0         0         0         0         0         0
         0         0         0         0         0         0         0         0
         0         0         0         0         0         0         0         0
         0         0         0         0         0         0         0         0
         0         0         0         0         0         0         0         0
         0         0         0         0         0         0         0         0
         0         0         0         0         0         0         0         0
         0         0         0         0         0         0         0         0
         0         0         0         0         0         0         0         0
         0         0         0         0         0         0         0         0
         0         0         0         0         0         0         0         0
         0         0         0         0         0         0         0         0
         0         0         0         0         0         0         0         0
         0         0         0         0         0         0         0         0
         0         0         0         0         0         0         0         0
         0         0         0         0         0         0         0         0
         0         0         0         0         0         0         0         0
         0         0         0         0         0         0         0         0
         0         0         0         0         0         0         0         0
         0         0         0         0         0         0         0         0
         0         0         0         0         0         0         0         0
         0         0         0         0         0         0         0         0
         0         0         0         0         0         0         0         0
         0         0         0         0         0         0         0         0
         0         0         0         0         0         0         0         0
         0         0         0         0         0         0         0         0
         0         0         0         0         0         0         0         0
         0         0         0         0         0         0         0         0
         0         0         0         0         0         0         0         0
         0         0         0         0         0         0         0         0
         0         0         0         0         0         0         0         0
         0         0         0         0         0         0         0         0
         0         0         0         0         0         0         0         0
         0         0         0         0         0         0         0         0
         0         0         0         0         0         0         0         0
         0         0         0         0         0         0         0         0
         0         0         0         0         0         0         0         0
         0         0         0         0         0         0         0         0
         0         0         0         0         0         0         0         0
         0         0         0         0         0         0         0         0
         0         0         0         0         0         0         0         0
         0         0         0         0         0         0         0         0
         0         0         0         0         0         0         0         0
         0         0         0         0         0         0         0         0
         0         0         0         0         0         0         0         0
         0         0         0         0         0         0         0         0
         0         0         0         0         0         0         0         0
         0         0         0         0         0         0         0         0
         0         0         0         0         0         0         0         0
         0         0         0         0         0         0         0         0
         0         0         0         0         0         0         0         0
         0         0         0         0         0         0         0         0
         0         0         0         0         0         0         0         0
         0         0         0         0         0         0         0         0
         0         0         0         0         0         0         0         0
         0         0         0         0         0         0         0         0
         0         0         0         0         0         0         0         0
         0         0         0         0         0         0         0         0
         0         0         0         0         0         0         0         0
         0         0         0         0         0         0         0         0
         0         0         0         0         0         0         0         0
         0         0         0         0         0         0         0         0
         0         0         0         0         0         0         0         0
         0         0         0         0         0         0         0         0
         0         0         0         0         0         0         0         0
         0         0         0         0         0         0         0         0
         0         0         0         0         0         0         0         0
         0         0         0         0         0         0         0         0
         0         0         0         0         0         0         0         0
         0         0         0         0         0         0         0         0
         0         0         0         0         0         0         0         0
         0         0         0         0         0         0         0         0
         0         0         0         0         0         0         0         0
         0         0         0         0         0         0         0         0
         0         0         0         0         0         0         0         0
         0         0         0         0         0         0         0         0
         0         0         0         0         0         0         0         0
         0         0         0         0         0         0         0         0
         0         0         0         0         0         0         0         0
         0         0         0         0         0         0         0         0
         0         0         0         0         0         0         0         0
         0         0         0         0         0         0         0         0
         0         0         0         0         0         0         0         0
         0         0         0         0         0         0         0         0
         0         0         0         0         0         0         0         0
         0         0         0         0         0         0         0         0
         0         0         0         0         0         0         0         0
         0         0         0         0         0         0         0         0
         0         0         0         0         0         0         0         0
         0         0         0         0         0         0         0         0
         0         0         0         0         0         0         0         0
         0         0         0         0         0         0         0         0
         0         0         0         0         0         0         0         0
         0         0         0         0         0         0         0         0
         0         0         0         0         0         0         0         0
         0         0         0         0         0         0         0         0
         0         0         0         0         0         0         0         0
         0         0         0         0         0         0         0         0
         0         0         0         0         0         0         0         0
         0         0         0         0         0         0         0         0
         0         0         0         0         0         0         0         0
         0         0         0         0         0         0         0         0
         0         0         0         0         0         0         0         0
         0         0         0         0         0         0         0         0
         0         0         0         0         0         0         0         0
         0         0         0         0         0         0         0         0
         0         0         0         0         0         0         0         0
         0         0         0         0         0         0         0         0
         0         0         0         0         0         0         0         0
         0         0         0         0         0         0         0         0
         0         0         0         0         0         0         0         0
         0         0         0         0         0         0         0         0
         0         0         0         0         0         0         0         0
         0         0         0         0         0         0         0         0
         0         0         0         0         0         0         0         0
         0         0         0         0         0         0         0         0
         0         0         0         0         0         0         0         0
         0         0         0         0         0         0         0         0
         0         0         0         0         0         0         0         0
         0         0         0         0         0         0         0         0
         0         0         0         0         0         0         0         0
         0         0         0         0         0         0         0         0
         0         0         0         0         0         0         0         0
         0         0         0         0         0         0         0         0
         0         0         0         0         0         0         0         0
         0         0         0         0         0         0         0         0
         0         0         0         0         0         0         0         0
         0         0         0         0         0         0         0         0
         0         0         0         0         0         0         0         0
         0         0         0         0         0         0         0         0
         0         0         0         0         0         0         0         0
         0         0         0         0         0         0         0         0
         0         0         0         0         0         0         0         0
         0         0         0         0         0         0         0         0
         0         0         0         0         0         0         0         0
         0         0         0         0         0         0         0         0
         0         0         0         0         0         0         0         0
         0         0         0         0         0         0         0         0
         0         0         0         0         0         0         0         0
         0         0         0         0         0         0         0         0
         0         0         0         0         0         0         0         0
         0         0         0         0         0         0         0         0
         0         0         0         0         0         0         0         0
         0         0         0         0         0         0         0         0
         0         0         0         0         0         0         0         0
         0         0         0         0         0         0         0         0
         0         0         0         0         0         0         0         0
         0         0         0         0         0         0         0         0
         0         0         0         0         0         0         0         0
         0         0         0         0         0         0         0         0
         0         0         0         0         0         0         0         0
         0         0         0         0         0         0         0         0
         0         0         0         0         0         0         0         0
         0         0         0         0         0         0         0         0
         0         0         0         0         0         0         0         0
         0         0         0         0         0         0         0         0
         0         0         0         0         0         0         0         0
         0         0         0         0         0         0         0         0
         0         0         0         0         0         0         0         0
         0         0         0         0         0         0         0         0
         0         0         0         0         0         0         0         0
         0         0         0         0         0         0         0         0
         0         0         0         0         0         0         0         0
         0         0         0         0         0         0         0         0
         0         0         0         0         0         0         0         0
         0         0         0         0         0         0         0         0
         0         0         0         0         0         0         0         0
         0         0         0         0         0         0         0         0
         0         0         0         0         0         0         0         0
         0         0         0         0         0         0         0         0
         0         0         0         0         0         0         0         0
         0         0         0         0         0         0         0         0
         0         0         0         0         0         0         0         0
         0         0         0         0         0         0         0         0
         0         0         0         0         0         0         0         0
         0         0         0         0         0         0         0         0
         0         0         0         0         0         0         0         0
         0         0         0         0         0         0         0         0
         0         0         0         0         0         0         0         0
         0         0         0         0         0         0         0         0
         0         0         0         0         0         0         0         0
         0         0         0         0         0         0         0         0
         0         0         0         0         0         0         0         0
         0         0         0         0         0         0         0         0
         0         0         0         0         0         0         0         0
         0         0         0         0         0         0         0         0
         0         0         0         0         0         0         0         0
         0         0         0         0         0         0         0         0
         0         0         0         0         0         0         0         0
         0         0         0         0         0         0         0         0
         0         0         0         0         0         0         0         0
         0         0         0         0         0         0         0         0
         0         0         0         0         0         0         0         0
         0         0         0         0         0         0         0         0
         0         0         0         0         0         0         0         0
         0         0         0         0         0         0         0         0
         0         0         0         0         0         0         0         0
         0         0         0         0         0         0         0         0
         0         0         0         0         0         0         0         0
         0         0         0         0         0         0         0         0
         0         0         0         0         0         0         0         0
         0         0         0         0         0         0         0         0
         0         0         0         0         0         0         0         0
         0         0         0         0         0         0         0         0
         0         0         0         0         0         0         0         0
         0         0         0         0         0         0         0         0
         0         0         0         0         0         0         0         0
         0         0         0         0         0         0         0         0
         0         0         0         0         0         0         0         0
         0         0         0         0         0         0         0         0
         0         0         0         0         0         0         0         0
         0         0         0         0         0         0         0         0
         0         0         0         0         0         0         0         0
         0         0         0         0         0         0         0         0
         0         0         0         0         0         0         0         0
         0         0         0         0         0         0         0         0
         0         0         0         0         0         0         0         0
         0         0         0         0         0         0         0         0
         0         0         0         0         0         0         0         0
         0         0         0         0         0         0         0         0
         0         0         0         0         0         0         0         0
         0         0         0         0         0         0         0         0
         0         0         0         0         0         0         0         0
         0         0         0         0         0         0         0         0
         0         0         0         0         0         0         0         0
         0         0         0         0         0         0         0         0
         0         0         0         0         0         0         0         0
         0         0         0         0         0         0         0         0
         0         0         0         0         0         0         0         0
         0         0         0         0         0         0         0         0
         0         0         0         0         0         0         0         0
         0         0         0         0         0         0         0         0
         0         0         0         0         0         0         0         0
         0         0         0         0         0         0         0         0
         0         0         0         0         0         0         0         0
         0         0         0         0         0         0         0         0
         0         0         0         0         0         0         0         0
         0         0         0         0         0         0         0         0
         0         0         0         0         0         0         0         0
         0         0         0         0         0         0         0         0
         0         0         0         0         0         0         0         0
         0         0         0         0         0         0         0         0
         0         0         0         0         0         0         0         0
         0         0         0         0         0         0         0         0
         0         0         0         0         0         0         0         0
         0         0         0         0         0         0         0         0
         0         0         0         0         0         0         0         0
         0         0         0         0         0         0         0         0
         0         0         0         0         0         0         0         0
         0         0         0         0         0         0         0         0
         0         0         0         0         0         0         0         0
         0         0         0         0         0         0         0         0
         0         0         0         0         0         0         0         0
         0         0         0         0         0         0         0         0
         0         0         0         0         0         0         0         0
         0         0         0         0         0         0         0         0
         0         0         0         0         0         0         0         0
         0         0         0         0         0         0         0         0
         0         0         0         0         0         0         0         0
         0         0         0         0         0         0         0         0
         0         0         0         0         0         0         0         0
         0         0         0         0         0         0         0         0
         0         0         0         0         0         0         0         0
         0         0         0         0         0         0         0         0
         0         0         0         0         0         0         0         0
         0         0         0         0         0         0         0         0
         0         0         0         0         0         0         0         0
         0         0         0         0         0         0         0         0
         0         0         0         0         0         0         0         0
         0         0         0         0         0         0         0         0
         0         0         0         0         0         0         0         0
         0         0         0         0         0         0         0         0
         0         0         0         0         0         0         0         0
         0         0         0         0         0         0         0         0
         0         0         0         0         0         0         0         0
         0         0         0         0         0         0         0         0
         0         0         0         0         0         0         0         0
         0         0         0         0         0         0         0         0
         0         0         0         0         0         0         0         0
         0         0         0         0         0         0         0         0
         0         0         0         0         0         0         0         0
         0         0         0         0         0         0         0         0
         0         0         0         0         0         0         0         0
         0         0         0         0         0         0         0         0
         0         0         0         0         0         0         0         0
         0         0         0         0         0         0         0         0
         0         0         0         0         0         0         0         0
         0         0         0         0         0         0         0         0
         0         0         0         0         0         0         0         0
         0         0         0         0         0         0         0         0
         0         0         0         0         0         0         0         0
         0         0         0         0         0         0         0         0
         0         0         0         0         0         0         0         0
         0         0         0         0         0         0         0         0
         0         0         0         0         0         0         0         0
         0         0         0         0         0         0         0         0
         0         0         0         0         0         0         0         0
         0         0         0         0         0         0         0         0
         0         0         0         0         0         0         0         0
         0         0         0         0         0         0         0         0
         0         0         0         0         0         0         0         0
         0         0         0         0         0         0         0         0
         0         0         0         0         0         0         0         0
         0         0         0         0         0         0         0         0
         0         0         0         0         0         0         0         0
         0         0         0         0         0         0         0         0
         0         0         0         0         0         0         0         0
         0         0         0         0         0         0         0         0
         0         0         0         0         0         0         0         0
         0         0         0         0         0         0         0         0
         0         0         0         0         0         0         0         0
         0         0         0         0         0         0         0         0
         0         0         0         0         0         0         0         0
         0         0         0         0         0         0         0         0
         0         0         0         0         0         0         0         0
         0         0         0         0         0         0         0         0
         0         0         0         0         0         0         0         0
         0         0         0         0         0         0         0         0
         0         0         0         0         0         0         0         0
         0         0         0         0         0         0         0         0
         0         0         0         0         0         0         0         0
         0         0         0         0         0         0         0         0
         0         0         0         0         0         0         0         0
         0         0         0         0         0         0         0         0
         0         0         0         0         0         0         0         0
         0         0         0         0         0         0         0         0
         0         0         0         0         0         0         0         0
         0         0         0         0         0         0         0         0
         0         0         0         0         0         0         0         0
         0         0         0         0         0         0         0         0
         0         0         0         0         0         0         0         0
         0         0         0         0         0         0         0         0
         0         0         0         0         0         0         0         0
         0         0         0         0         0         0         0         0
         0         0         0         0         0         0         0         0
         0         0         0         0         0         0         0         0
         0         0         0         0         0         0         0         0
         0         0         0         0         0         0         0         0
         0         0         0         0         0         0         0         0
         0         0         0         0         0         0         0         0
         0         0         0         0         0         0         0         0
         0         0         0         0         0         0         0         0
         0         0         0         0         0         0         0         0
         0         0         0         0         0         0         0         0
         0         0         0         0         0         0         0         0
         0         0         0         0         0         0         0         0
         0         0         0         0         0         0         0         0
         0         0         0         0         0         0         0         0
         0         0         0         0         0         0         0         0
         0         0         0         0         0         0         0         0
         0         0         0         0         0         0         0         0
         0         0         0         0         0         0         0         0
         0         0         0         0         0         0         0         0
         0         0         0         0         0         0         0         0
         0         0         0         0         0         0         0         0
         0         0         0         0         0         0         0         0
         0         0         0         0         0         0         0         0
         0         0         0         0         0         0         0         0
         0         0         0         0         0         0         0         0
         0         0         0         0         0         0         0         0
         0         0         0         0         0         0         0         0
         0         0         0         0         0         0         0         0
         0         0         0         0         0         0         0         0
         0         0         0         0         0         0         0         0
         0         0         0         0         0         0         0         0
         0         0         0         0         0         0         0         0
         0         0         0         0         0         0         0         0
         0         0         0         0         0         0         0         0
         0         0         0         0         0         0         0         0
         0         0         0         0         0         0         0         0
         0         0         0         0         0         0         0         0
         0         0         0         0         0         0         0         0
         0         0         0         0         0         0         0         0
         0         0         0         0         0         0         0         0
         0         0         0         0         0         0         0         0
         0         0         0         0         0         0         0         0
         0         0         0         0         0         0         0         0
         0         0         0         0         0         0         0         0
         0         0         0         0         0         0         0         0
         0         0         0         0         0         0         0         0
         0         0         0         0         0         0         0         0
         0         0         0         0         0         0         0         0
         0         0         0         0         0         0         0         0
         0         0         0         0         0         0         0         0
         0         0         0         0         0         0         0         0
         0         0         0         0         0         0         0         0
         0         0         0         0         0         0         0         0
         0         0         0         0         0         0         0         0
         0         0         0         0         0         0         0         0
         0         0         0         0         0         0         0         0
         0         0         0         0         0         0         0         0
         0         0         0         0         0         0         0         0
         0         0         0         0         0         0         0         0
         0         0         0         0         0         0         0         0
         0         0         0         0         0         0         0         0
         0         0         0         0         0         0         0         0
         0         0         0         0         0         0         0         0
         0         0         0         0         0         0         0         0
         0         0         0         0         0         0         0         0
         0         0         0         0         0         0         0         0
         0         0         0         0         0         0         0         0
         0         0         0         0         0         0         0         0
         0         0         0         0         0         0         0         0
         0         0         0         0         0         0         0         0
         0         0         0         0         0         0         0         0
         0         0         0         0         0         0         0         0
         0         0         0         0         0         0         0         0
         0         0         0         0         0         0         0         0
         0         0         0         0         0         0         0         0
         0         0         0         0         0         0         0         0
         0         0         0         0         0         0         0         0
         0         0         0         0         0         0         0         0
         0         0         0         0         0         0         0         0
         0         0         0         0         0         0         0         0
         0         0         0         0         0         0         0         0
         0         0         0         0         0         0         0         0
         0         0         0         0         0         0         0         0
         0         0         0         0         0         0         0         0
         0         0         0         0         0         0         0         0
         0         0         0         0         0         0         0         0
         0         0         0         0         0         0         0         0
         0         0         0         0         0         0         0         0
         0         0         0         0         0         0         0         0
         0         0         0         0         0         0         0         0
         0         0         0         0         0         0         0         0
         0         0         0         0         0         0         0         0
         0         0         0         0         0         0         0         0
         0         0         0         0         0         0         0         0
         0         0         0         0         0         0         0         0
         0         0         0         0         0         0         0         0
         0         0         0         0         0         0         0         0
         0         0         0         0         0         0         0         0
         0         0         0         0         0         0         0         0
         0         0         0         0         0         0         0         0
         0         0         0         0         0         0         0         0
         0         0         0         0         0         0         0         0
         0         0         0         0         0         0         0         0
         0         0         0         0         0         0         0         0
         0         0         0         0         0         0         0         0
         0         0         0         0         0         0         0         0
         0         0         0         0         0         0         0         0
         0         0         0         0         0         0         0         0
         0         0         0         0         0         0         0         0
         0         0         0         0         0         0         0         0
         0         0         0         0         0         0         0         0
         0         0         0         0         0         0         0         0
         0         0         0         0         0         0         0         0
         0         0         0         0         0         0         0         0
         0         0         0         0         0         0         0         0
         0         0         0         0         0         0         0         0
         0         0         0         0         0         0         0         0
         0         0         0         0         0         0         0         0
         0         0         0         0         0         0         0         0
         0         0         0         0         0         0         0         0
         0         0         0         0         0         0         0         0
         0         0         0         0         0         0         0         0
         0         0         0         0         0         0         0         0
         0         0         0         0         0         0         0         0
         0         0         0         0         0         0         0         0
         0         0         0         0         0         0         0         0
         0         0         0         0         0         0         0         0
         0         0         0         0         0         0         0         0
         0         0         0         0         0         0         0         0
         0         0         0         0         0         0         0         0
         0         0         0         0         0         0         0         0
         0         0         0         0         0         0         0         0
         0         0         0         0         0         0         0         0
         0         0         0         0         0         0         0         0
         0         0         0         0         0         0         0         0
         0         0         0         0         0         0         0         0
         0         0         0         0         0         0         0         0
         0         0         0         0         0         0         0         0
         0         0         0         0         0         0         0         0
         0         0         0         0         0         0         0         0
         0         0         0         0         0         0         0         0
         0         0         0         0         0         0         0         0
         0         0         0         0         0         0         0         0
         0         0         0         0         0         0         0         0
         0         0         0         0         0         0         0         0
         0         0         0         0         0         0         0         0
         0         0         0         0         0         0         0         0
         0         0         0         0         0         0         0         0
         0         0         0         0         0         0         0         0
         0         0         0         0         0         0         0         0
         0         0         0         0         0         0         0         0
         0         0         0         0         0         0         0         0
         0         0         0         0         0         0         0         0
         0         0         0         0         0         0         0         0
         0         0         0         0         0         0         0         0
         0         0         0         0         0         0         0         0
         0         0         0         0         0         0         0         0
         0         0         0         0         0         0         0         0
         0         0         0         0         0         0         0         0
         0         0         0         0         0         0         0         0
         0         0         0         0         0         0         0         0
         0         0         0         0         0         0         0         0
         0         0         0         0         0         0         0         0
         0         0         0         0         0         0         0         0
         0         0         0         0         0         0         0         0
         0         0         0         0         0         0         0         0
         0         0         0         0         0         0         0         0
         0         0         0         0         0         0         0         0
         0         0         0         0         0         0         0         0
         0         0         0         0         0         0         0         0
         0         0         0         0         0         0         0         0
         0         0         0         0         0         0         0         0
         0         0         0         0         0         0         0         0
         0         0         0         0         0         0         0         0
         0         0         0         0         0         0         0         0
         0         0         0         0         0         0         0         0
         0         0         0         0         0         0         0         0
         0         0         0         0         0         0         0         0
         0         0         0         0         0         0         0         0
         0         0         0         0         0         0         0         0
         0         0         0         0         0         0         0         0
         0         0         0         0         0         0         0         0
         0         0         0         0         0         0         0         0
         0         0         0         0         0         0         0         0
         0         0         0         0         0         0         0         0
         0         0         0         0         0         0         0         0
         0         0         0         0         0         0         0         0
         0         0         0         0         0         0         0         0
         0         0         0         0         0         0         0         0
         0         0         0         0         0         0         0         0
         0         0         0         0         0         0         0         0
         0         0         0         0         0         0         0         0
         0         0         0         0         0         0         0         0
         0         0         0         0         0         0         0         0
         0         0         0         0         0         0         0         0
         0         0         0         0         0         0         0         0
         0         0         0         0         0         0         0         0
         0         0         0         0         0         0         0         0
         0         0         0         0         0         0         0         0
         0         0         0         0         0         0         0         0
         0         0         0         0         0         0         0         0
         0         0         0         0         0         0         0         0
         0         0         0         0         0         0         0         0
         0         0         0         0         0         0         0         0
         0         0         0         0         0         0         0         0
         0         0         0         0         0         0         0         0
         0         0         0         0         0         0         0         0
         0         0         0         0         0         0         0         0
         0         0         0         0         0         0         0         0
         0         0         0         0         0         0         0         0
         0         0         0         0         0         0         0         0
         0         0         0         0         0         0         0         0
         0         0         0         0         0         0         0         0
         0         0         0         0         0         0         0         0
         0         0         0         0         0         0         0         0
         0         0         0         0         0         0         0         0
         0         0         0         0         0         0         0         0
         0         0         0         0         0         0         0         0
         0         0         0         0         0         0         0         0
         0         0         0         0         0         0         0         0
         0         0         0         0         0         0         0         0
         0         0         0         0         0         0         0         0
         0         0         0         0         0         0         0         0
         0         0         0         0         0         0         0         0
         0         0         0         0         0         0         0         0
         0         0         0         0         0         0         0         0
         0         0         0         0         0         0         0         0
         0         0         0         0         0         0         0         0
         0         0         0         0         0         0         0         0
         0         0         0         0         0         0         0         0
         0         0         0         0         0         0         0         0
         0         0         0         0         0         0         0         0
         0         0         0         0         0         0         0         0
         0         0         0         0         0         0         0         0
         0         0         0         0         0         0         0         0
         0         0         0         0         0         0         0         0
         0         0         0         0         0         0         0         0
         0         0         0         0         0         0         0         0
         0         0         0         0         0         0         0         0
         0         0         0         0         0         0         0         0
         0         0         0         0         0         0         0         0
         0         0         0         0         0         0         0         0
         0         0         0         0         0         0         0         0
         0         0         0         0         0         0         0         0
         0         0         0         0         0         0         0         0
         0         0         0         0         0         0         0         0
         0         0         0         0         0         0         0         0
         0         0         0         0         0         0         0         0
         0         0         0         0         0         0         0         0
         0         0         0         0         0         0         0         0
         0         0         0         0         0         0         0         0
         0         0         0         0         0         0         0         0
         0         0         0         0         0         0         0         0
         0         0         0         0         0         0         0         0
         0         0         0         0         0         0         0         0
         0         0         0         0         0         0         0         0
         0         0         0         0         0         0         0         0
         0         0         0         0         0         0         0         0
         0         0         0         0         0         0         0         0
         0         0         0         0         0         0         0         0
         0         0         0         0         0         0         0         0
         0         0         0         0         0         0         0         0
         0         0         0         0         0         0         0         0
         0         0         0         0         0         0         0         0
         0         0         0         0         0         0         0         0
         0         0         0         0         0         0         0         0
         0         0         0         0         0         0         0         0
         0         0         0         0         0         0         0         0
         0         0         0         0         0         0         0         0
         0         0         0         0         0         0         0         0
         0         0         0         0         0         0         0         0
         0         0         0         0         0         0         0         0
         0         0         0         0         0         0         0         0
         0         0         0         0         0         0         0         0
         0         0         0         0         0         0         0         0
         0         0         0         0         0         0         0         0
         0         0         0         0         0         0         0         0
         0         0         0         0         0         0         0         0
         0         0         0         0         0         0         0         0
         0         0         0         0         0         0         0         0
         0         0         0         0         0         0         0         0
         0         0         0         0         0         0         0         0
         0         0         0         0         0         0         0         0
         0         0         0         0         0         0         0         0
         0         0         0         0         0         0         0         0
         0         0         0         0         0         0         0         0
         0         0         0         0         0         0         0         0
         0         0         0         0         0         0         0         0
         0         0         0         0         0         0         0         0
         0         0         0         0         0         0         0         0
         0         0         0         0         0         0         0         0
         0         0         0         0         0         0         0         0
         0         0         0         0         0         0         0         0
         0         0         0         0         0         0         0         0
         0         0         0         0         0         0         0         0
         0         0         0         0         0         0         0         0
         0         0         0         0         0         0         0         0
         0         0         0         0         0         0         0         0
         0         0         0         0         0         0         0         0
         0         0         0         0         0         0         0         0
         0         0         0         0         0         0         0         0
         0         0         0         0         0         0         0         0
         0         0         0         0         0         0         0         0
         0         0         0         0         0         0         0         0
         0         0         0         0         0         0         0         0
         0         0         0         0         0         0         0         0
         0         0         0         0         0         0         0         0
         0         0         0         0         0         0         0         0
         0         0         0         0         0         0         0         0
         0         0         0         0         0         0         0         0
         0         0         0         0         0         0         0         0
         0         0         0         0         0         0         0         0
         0         0         0         0         0         0         0         0
         0         0         0         0         0         0         0         0
         0         0         0         0         0         0         0         0
         0         0         0         0         0         0         0         0
         0         0         0         0         0         0         0         0
         0         0         0         0         0         0         0         0
         0         0         0         0         0         0         0         0
         0         0         0         0         0         0         0         0
         0         0         0         0         0         0         0         0
         0         0         0         0         0         0         0         0
         0         0         0         0         0         0         0         0
         0         0         0         0         0         0         0         0
         0         0         0         0         0         0         0         0
         0         0         0         0         0         0         0         0
         0         0         0         0         0         0         0         0
         0         0         0         0         0         0         0         0
         0         0         0         0         0         0         0         0
         0         0         0         0         0         0         0         0
         0         0         0         0         0         0         0         0
         0         0         0         0         0         0         0         0
         0         0         0         0         0         0         0         0
         0         0         0         0         0         0         0         0
         0         0         0         0         0         0         0         0
         0         0         0         0         0         0         0         0
         0         0         0         0         0         0         0         0
         0         0         0         0         0         0         0         0
         0         0         0         0         0         0         0         0
         0         0         0         0         0         0         0         0
         0         0         0         0         0         0         0         0
         0         0         0         0         0         0         0         0
         0         0         0         0         0         0         0         0
         0         0         0         0         0         0         0         0
         0         0         0         0         0         0         0         0
         0         0         0         0         0         0         0         0
         0         0         0         0         0         0         0         0
         0         0         0         0         0         0         0         0
         0         0         0         0         0         0         0         0
         0         0         0         0         0         0         0         0
         0         0         0         0         0         0         0         0
         0         0         0         0         0         0         0         0
         0         0         0         0         0         0         0         0
         0         0         0         0         0         0         0         0
         0         0         0         0         0         0         0         0
         0         0         0         0         0         0         0         0
         0         0         0         0         0         0         0         0
         0         0         0         0         0         0         0         0
         0         0         0         0         0         0         0         0
         0         0         0         0         0         0         0         0
         0         0         0         0         0         0         0         0
         0         0         0         0         0         0         0         0
         0         0         0         0         0         0         0         0
         0         0         0         0         0         0         0         0
         0         0         0         0         0         0         0         0
         0         0         0         0         0         0         0         0
         0         0         0         0         0         0         0         0
         0         0         0         0         0         0         0         0
         0         0         0         0         0         0         0         0
         0         0         0         0         0         0         0         0
         0         0         0         0         0         0         0         0
         0         0         0         0         0         0         0         0
         0         0         0         0         0         0         0         0
         0         0         0         0         0         0         0         0
         0         0         0         0         0         0         0         0
         0         0         0         0         0         0         0         0
         0         0         0         0         0         0         0         0
         0         0         0         0         0         0         0         0
         0         0         0         0         0         0         0         0
         0         0         0         0         0         0         0         0
         0         0         0         0         0         0         0         0
         0         0         0         0         0         0         0         0
         0         0         0         0         0         0         0         0
         0         0         0         0         0         0         0         0
         0         0         0         0         0         0         0         0
         0         0         0         0         0         0         0         0
         0         0         0         0         0         0         0         0
         0         0         0         0         0         0         0         0
         0         0         0         0         0         0         0         0
         0         0         0         0         0         0         0         0
         0         0         0         0         0         0         0         0
         0         0         0         0         0         0         0         0
         0         0         0         0         0         0         0         0
         0         0         0         0         0         0         0         0
         0         0         0         0         0         0         0         0
         0         0         0         0         0         0         0         0
         0         0         0         0         0         0         0         0
         0         0         0         0         0         0         0         0
         0         0         0         0         0         0         0         0
         0         0         0         0         0         0         0         0
         0         0         0         0         0         0         0         0
         0         0         0         0         0         0         0         0
         0         0         0         0         0         0         0         0
         0         0         0         0         0         0         0         0
         0         0         0         0         0         0         0         0
         0         0         0         0         0         0         0         0
         0         0         0         0         0         0         0         0
         0         0         0         0         0         0         0         0
         0         0         0         0         0         0         0         0
         0         0         0         0         0         0         0         0
         0         0         0         0         0         0         0         0
         0         0         0         0         0         0         0         0
         0         0         0         0         0         0         0         0
         0         0         0         0         0         0         0         0
         0         0         0         0         0         0         0         0
         0         0         0         0         0         0         0         0
         0         0         0         0         0         0         0         0
         0         0         0         0         0         0         0         0
         0         0         0         0         0         0         0         0
         0         0         0         0         0         0         0         0
         0         0         0         0         0         0         0         0
         0         0         0         0         0         0         0         0
         0         0         0         0         0         0         0         0
         0         0         0         0         0         0         0         0
         0         0         0         0         0         0         0         0
         0         0         0         0         0         0         0         0
         0         0         0         0         0         0         0         0
         0         0         0         0         0         0         0         0
         0         0         0         0         0         0         0         0
         0         0         0         0         0         0         0         0
         0         0         0         0         0         0         0         0
         0         0         0         0         0         0         0         0
         0         0         0         0         0         0         0         0
         0         0         0         0         0         0         0         0
         0         0         0         0         0         0         0         0
         0         0         0         0         0         0         0         0
         0         0         0         0         0         0         0         0
         0         0         0         0         0         0         0         0
         0         0         0         0         0         0         0         0
         0         0         0         0         0         0         0         0
         0         0         0         0         0         0         0         0
         0         0         0         0         0         0         0         0
         0         0         0         0         0         0         0         0
         0         0         0         0         0         0         0         0
         0         0         0         0         0         0         0         0
         0         0         0         0         0         0         0         0
         0         0         0         0         0         0         0         0
         0         0         0         0         0         0         0         0
         0         0         0         0         0         0         0         0
         0         0         0         0         0         0         0         0
         0         0         0         0         0         0         0         0
         0         0         0         0         0         0         0         0
         0         0         0         0         0         0         0         0
         0         0         0         0         0         0         0         0
         0         0         0         0         0         0         0         0
         0         0         0         0         0         0         0         0
         0         0         0         0         0         0         0         0
         0         0         0         0         0         0         0         0
         0         0         0         0         0         0         0         0
         0         0         0         0         0         0         0         0
         0         0         0         0         0         0         0         0
         0         0         0         0         0         0         0         0
         0         0         0         0         0         0         0         0
         0         0         0         0         0         0         0         0
         0         0         0         0         0         0         0         0
         0         0         0         0         0         0         0         0
         0         0         0         0         0         0         0         0
         0         0         0         0         0         0         0         0
         0         0         0         0         0         0         0         0
         0         0         0         0         0         0         0         0
         0         0         0         0         0         0         0         0
         0         0         0         0         0         0         0         0
         0         0         0         0         0         0         0         0
         0         0         0         0         0         0         0         0
         0         0         0         0         0         0         0         0
         0         0         0         0         0         0         0         0
         0         0         0         0         0         0         0         0
         0         0         0         0         0         0         0         0
         0         0         0         0         0         0         0         0
         0         0         0         0         0         0         0         0
         0         0         0         0         0         0         0         0
         0         0         0         0         0         0         0         0
         0         0         0         0         0         0         0         0
         0         0         0         0         0         0         0         0
         0         0         0         0         0         0         0         0
         0         0         0         0         0         0         0         0
         0         0         0         0         0         0         0         0
         0         0         0         0         0         0         0         0
         0         0         0         0         0         0         0         0
         0         0         0         0         0         0         0         0
         0         0         0         0         0         0         0         0
         0         0         0         0         0         0         0         0
         0         0         0         0         0         0         0         0
         0         0         0         0         0         0         0         0
         0         0         0         0         0         0         0         0
         0         0         0         0         0         0         0         0
         0         0         0         0         0         0         0         0
         0         0         0         0         0         0         0         0
         0         0         0         0         0         0         0         0
         0         0         0         0         0         0         0         0
         0         0         0         0         0         0         0         0
         0         0         0         0         0         0         0         0
         0         0         0         0         0         0         0         0
         0         0         0         0         0         0         0         0
         0         0         0         0         0         0         0         0
         0         0         0         0         0         0         0         0
         0         0         0         0         0         0         0         0
         0         0         0         0         0         0         0         0
         0         0         0         0         0         0         0         0
         0         0         0         0         0         0         0         0
         0         0         0         0         0         0         0         0
         0         0         0         0         0         0         0         0
         0         0         0         0         0         0         0         0
         0         0         0         0         0         0         0         0
         0         0         0         0         0         0         0         0
         0         0         0         0         0         0         0         0
         0         0         0         0         0         0         0         0
         0         0         0         0         0         0         0         0
         0         0         0         0         0         0         0         0
         0         0         0         0         0         0         0         0
         0         0         0         0         0         0         0         0
         0         0         0         0         0         0         0         0
         0         0         0         0         0         0         0         0
         0         0         0         0         0         0         0         0
         0         0         0         0         0         0         0         0
         0         0         0         0         0         0         0         0
         0         0         0         0         0         0         0         0
         0         0         0         0         0         0         0         0
         0         0         0         0         0         0         0         0
         0         0         0         0         0         0         0         0
         0         0         0         0         0         0         0         0
         0         0         0         0         0         0         0         0
         0         0         0         0         0         0         0         0
         0         0         0         0         0         0         0         0
         0         0         0         0         0         0         0         0
         0         0         0         0         0         0         0         0
         0         0         0         0         0         0         0         0
         0         0         0         0         0         0         0         0
         0         0         0         0         0         0         0         0
         0         0         0         0         0         0         0         0
         0         0         0         0         0         0         0         0
         0         0         0         0         0         0         0         0
         0         0         0         0         0         0         0         0
         0         0         0         0         0         0         0         0
         0         0         0         0         0         0         0         0
         0         0         0         0         0         0         0         0
         0         0         0         0         0         0         0         0
         0         0         0         0         0         0         0         0
         0         0         0         0         0         0         0         0
         0         0         0         0         0         0         0         0
         0         0         0         0         0         0         0         0
         0         0         0         0         0         0         0         0
         0         0         0         0         0         0         0         0
         0         0         0         0         0         0         0         0
         0         0         0         0         0         0         0         0
         0         0         0         0         0         0         0         0
         0         0         0         0         0         0         0         0
         0         0         0         0         0         0         0         0
         0         0         0         0         0         0         0         0
         0         0         0         0         0         0         0         0
         0         0         0         0         0         0         0         0
         0         0         0         0         0         0         0         0
         0         0         0         0         0         0         0         0
         0         0         0         0         0         0         0         0
         0         0         0         0         0         0         0         0
         0         0         0         0         0         0         0         0
         0         0         0         0         0         0         0         0
         0         0         0         0         0         0         0         0
         0         0         0         0         0         0         0         0
         0         0         0         0         0         0         0         0
         0         0         0         0         0         0         0         0
         0         0         0         0         0         0         0         0
         0         0         0         0         0         0         0         0
         0         0         0         0         0         0         0         0
         0         0         0         0         0         0         0         0
         0         0         0         0         0         0         0         0
         0         0         0         0         0         0         0         0
         0         0         0         0         0         0         0         0
         0         0         0         0         0         0         0         0
         0         0         0         0         0         0         0         0
         0         0         0         0         0         0         0         0
         0         0         0         0         0         0         0         0
         0         0         0         0         0         0         0         0
         0         0         0         0         0         0         0         0
         0         0         0         0         0         0         0         0
         0         0         0         0         0         0         0         0
         0         0         0         0         0         0         0         0
         0         0         0         0         0         0         0         0
         0         0         0         0         0         0         0         0
         0         0         0         0         0         0         0         0
         0         0         0         0         0         0         0         0
         0         0         0         0         0         0         0         0
         0         0         0         0         0         0         0         0
         0         0         0         0         0         0         0         0
         0         0         0         0         0         0         0         0
         0         0         0         0         0         0         0         0
         0         0         0         0         0         0         0         0
         0         0         0         0         0         0         0         0
         0         0         0         0         0         0         0         0
         0         0         0         0         0         0         0         0
         0         0         0         0         0         0         0         0
         0         0         0         0         0         0         0         0
         0         0         0         0         0         0         0         0
         0         0         0         0         0         0         0         0
         0         0         0         0         0         0         0         0
         0         0         0         0         0         0         0         0
         0         0         0         0         0         0         0         0
         0         0         0         0         0         0         0         0
         0         0         0         0         0         0         0         0
         0         0         0         0         0         0         0         0
         0         0         0         0         0         0         0         0
         0         0         0         0         0         0         0         0
         0         0         0         0         0         0         0         0
         0         0         0         0         0         0         0         0
         0         0         0         0         0         0         0         0
         0         0         0         0         0         0         0         0
         0         0         0         0         0         0         0         0
         0         0         0         0         0         0         0         0
         0         0         0         0         0         0         0         0
         0         0         0         0         0         0         0         0
         0         0         0         0         0         0         0         0
         0         0         0         0         0         0         0         0
         0         0         0         0         0         0         0         0
         0         0         0         0         0         0         0         0
         0         0         0         0         0         0         0         0
         0         0         0         0         0         0         0         0
         0         0         0         0         0         0         0         0
         0         0         0         0         0         0         0         0
         0         0         0         0         0         0         0         0
         0         0         0         0         0         0         0         0
         0         0         0         0         0         0         0         0
         0         0         0         0         0         0         0         0
         0         0         0         0         0         0         0         0
         0         0         0         0         0         0         0         0
         0         0         0         0         0         0         0         0
         0         0         0         0         0         0         0         0
         0         0         0         0         0         0         0         0
         0         0         0         0         0         0         0         0
         0         0         0         0         0         0         0         0
         0         0         0         0         0         0         0         0
         0         0         0         0         0         0         0         0
         0         0         0         0         0         0         0         0
         0         0         0         0         0         0         0         0
         0         0         0         0         0         0         0         0
         0         0         0         0         0         0         0         0
         0         0         0         0         0         0         0         0
         0         0         0         0         0         0         0         0
         0         0         0         0         0         0         0         0
         0         0         0         0         0         0         0         0
         0         0         0         0         0         0         0         0
         0         0         0         0         0         0         0         0
         0         0         0         0         0         0         0         0
         0         0         0         0         0         0         0         0
         0         0         0         0         0         0         0         0
         0         0         0         0         0         0         0         0
         0         0         0         0         0         0         0         0
         0         0         0         0         0         0         0         0
         0         0         0         0         0         0         0         0
         0         0         0         0         0         0         0         0
         0         0         0         0         0         0         0         0
         0         0         0         0         0         0         0         0
         0         0         0         0         0         0         0         0
         0         0         0         0         0         0         0         0
         0         0         0         0         0         0         0         0
         0         0         0         0         0         0         0         0
         0         0         0         0         0         0         0         0
         0         0         0         0         0         0         0         0
         0         0         0         0         0         0         0         0
         0         0         0         0         0         0         0         0
         0         0         0         0         0         0         0         0
         0         0         0         0         0         0         0         0
         0         0         0         0         0         0         0         0
         0         0         0         0         0         0         0         0
         0         0         0         0         0         0         0         0
         0         0         0         0         0         0         0         0
         0         0         0         0         0         0         0         0
         0         0         0         0         0         0         0         0
         0         0         0         0         0         0         0         0
         0         0         0         0         0         0         0         0
         0         0         0         0         0         0         0         0
         0         0         0         0         0         0         0         0
         0         0         0         0         0         0         0         0
         0         0         0         0         0         0         0         0
         0         0         0         0         0         0         0         0
         0         0         0         0         0         0         0         0
         0         0         0         0         0         0         0         0
         0         0         0         0         0         0         0         0
         0         0         0         0         0         0         0         0
         0         0         0         0         0         0         0         0
         0         0         0         0         0         0         0         0
         0         0         0         0         0         0         0         0
         0         0         0         0         0         0         0         0
         0         0         0         0         0         0         0         0
         0         0         0         0         0         0         0         0
         0         0         0         0         0         0         0         0
         0         0         0         0         0         0         0         0
         0         0         0         0         0         0         0         0
         0         0         0         0         0         0         0         0
         0         0         0         0         0         0         0         0
         0         0         0         0         0         0         0         0
         0         0         0         0         0         0         0         0
         0         0         0         0         0         0         0         0
         0         0         0         0         0         0         0         0
         0         0         0         0         0         0         0         0
         0         0         0         0         0         0         0         0
         0         0         0         0         0         0         0         0
         0         0         0         0         0         0         0         0
         0         0         0         0         0         0         0         0
         0         0         0         0         0         0         0         0
         0         0         0         0         0         0         0         0
         0         0         0         0         0         0         0         0
         0         0         0         0         0         0         0         0
         0         0         0         0         0         0         0         0
         0         0         0         0         0         0         0         0
         0         0         0         0         0         0         0         0
         0         0         0         0         0         0         0         0
         0         0         0         0         0         0         0         0
         0         0         0         0         0         0         0         0
         0         0         0         0         0         0         0         0
         0         0         0         0         0         0         0         0
         0         0         0         0         0         0         0         0
         0         0         0         0         0         0         0         0
         0         0         0         0         0         0         0         0
         0         0         0         0         0         0         0         0
         0         0         0         0         0         0         0         0
         0         0         0         0         0         0         0         0
         0         0         0         0         0         0         0         0
         0         0         0         0         0         0         0         0
         0         0         0         0         0         0         0         0
         0         0         0         0         0         0         0         0
         0         0         0         0         0         0         0         0
         0         0         0         0         0         0         0         0
         0         0         0         0         0         0         0         0
         0         0         0         0         0         0         0         0
         0         0         0         0         0         0         0         0
         0         0         0         0         0         0         0         0
         0         0         0         0         0         0         0         0
         0         0         0         0         0         0         0         0
         0         0         0         0         0         0         0         0
         0         0         0         0         0         0         0         0
         0         0         0         0         0         0         0         0
         0         0         0         0         0         0         0         0
         0         0         0         0         0         0         0         0
         0         0         0         0         0         0         0         0
         0         0         0         0         0         0         0         0
         0         0         0         0         0         0         0         0
         0         0         0         0         0         0         0         0
         0         0         0         0         0         0         0         0
         0         0         0         0         0         0         0         0
         0         0         0         0         0         0         0         0
         0         0         0         0         0         0         0         0
         0         0         0         0         0         0         0         0
         0         0         0         0         0         0         0         0
         0         0         0         0         0         0         0         0
         0         0         0         0         0         0         0         0
         0         0         0         0         0         0         0         0
         0         0         0         0         0         0         0         0
         0         0         0         0         0         0         0         0
         0         0         0         0         0         0         0         0
         0         0         0         0         0         0         0         0
         0         0         0         0         0         0         0         0
         0         0         0         0         0         0         0         0
         0         0         0         0         0         0         0         0
         0         0         0         0         0         0         0         0
         0         0         0         0         0         0         0         0
         0         0         0         0         0         0         0         0
         0         0         0         0         0         0         0         0
         0         0         0         0         0         0         0         0
         0         0         0         0         0         0         0         0
         0         0         0         0         0         0         0         0
         0         0         0         0         0         0         0         0
         0         0         0         0         0         0         0         0
         0         0         0         0         0         0         0         0
         0         0         0         0         0         0         0         0
         0         0         0         0         0         0         0         0
         0         0         0         0         0         0         0         0
         0         0         0         0         0         0         0         0
         0         0         0         0         0         0         0         0
         0         0         0         0         0         0         0         0
         0         0         0         0         0         0         0         0
         0         0         0         0         0         0         0         0
         0         0         0         0         0         0         0         0
         0         0         0         0         0         0         0         0
         0         0         0         0         0         0         0         0
         0         0         0         0         0         0         0         0
         0         0         0         0         0         0         0         0
         0         0         0         0         0         0         0         0
         0         0         0         0         0         0         0         0
         0         0         0         0         0         0         0         0
         0         0         0         0         0         0         0         0
         0         0         0         0         0         0         0         0
         0         0         0         0         0         0         0         0
         0         0         0         0         0         0         0         0
         0         0         0         0         0         0         0         0
         0         0         0         0         0         0         0         0
         0         0         0         0         0         0         0         0
         0         0         0         0         0         0         0         0
         0         0         0         0         0         0         0         0
         0         0         0         0         0         0         0         0
         0         0         0         0         0         0         0         0
         0         0         0         0         0         0         0         0
         0         0         0         0         0         0         0         0
         0         0         0         0         0         0         0         0
         0         0         0         0         0         0         0         0
         0         0         0         0         0         0         0         0
         0         0         0         0         0         0         0         0
         0         0         0         0         0         0         0         0
         0         0         0         0         0         0         0         0
         0         0         0         0         0         0         0         0
         0         0         0         0         0         0         0         0
         0         0         0         0         0         0         0         0
         0         0         0         0         0         0         0         0
         0         0         0         0         0         0         0         0
         0         0         0         0         0         0         0         0
         0         0         0         0         0         0         0         0
         0         0         0         0         0         0         0         0
         0         0         0         0         0         0         0         0
         0         0         0         0         0         0         0         0
         0         0         0         0         0         0         0         0
         0         0         0         0         0         0         0         0
         0         0         0         0         0         0         0         0
         0         0         0         0         0         0         0         0
         0         0         0         0         0         0         0         0
         0         0         0         0         0         0         0         0
         0         0         0         0         0         0         0         0
         0         0         0         0         0         0         0         0
         0         0         0         0         0         0         0         0
         0         0         0         0         0         0         0         0
         0         0         0         0         0         0         0         0
         0         0         0         0         0         0         0         0
         0         0         0         0         0         0         0         0
         0         0         0         0         0         0         0         0
         0         0         0         0         0         0         0         0
         0         0         0         0         0         0         0         0
         0         0         0         0         0         0         0         0
         0         0         0         0         0         0         0         0
         0         0         0         0         0         0         0         0
         0         0         0         0         0         0         0         0
         0         0         0         0         0         0         0         0
         0         0         0         0         0         0         0         0
         0         0         0         0         0         0         0         0
         0         0         0         0         0         0         0         0
         0         0         0         0         0         0         0         0
         0         0         0         0         0         0         0         0
         0         0         0         0         0         0         0         0
         0         0         0         0         0         0         0         0
         0         0         0         0         0         0         0         0
         0         0         0         0         0         0         0         0
         0         0         0         0         0         0         0         0
         0         0         0         0         0         0         0         0
         0         0         0         0         0         0         0         0
         0         0         0         0         0         0         0         0
         0         0         0         0         0         0         0         0
         0         0         0         0         0         0         0         0
         0         0         0         0         0         0         0         0
         0         0         0         0         0         0         0         0
         0         0         0         0         0         0         0         0
         0         0         0         0         0         0         0         0
         0         0         0         0         0         0         0         0
         0         0         0         0         0         0         0         0
         0         0         0         0         0         0         0         0
         0         0         0         0         0         0         0         0
         0         0         0         0         0         0         0         0
         0         0         0         0         0         0         0         0
         0         0         0         0         0         0         0         0
         0         0         0         0         0         0         0         0
         0         0         0         0         0         0         0         0
         0         0         0         0         0         0         0         0
         0         0         0         0         0         0         0         0
         0         0         0         0         0         0         0         0
         0         0         0         0         0         0         0         0
         0         0         0         0         0         0         0         0
         0         0         0         0         0         0         0         0
         0         0         0         0         0         0         0         0
         0         0         0         0         0         0         0         0
         0         0         0         0         0         0         0         0
         0         0         0         0         0         0         0         0
         0         0         0         0         0         0         0         0
         0         0         0         0         0         0         0         0
         0         0         0         0         0         0         0         0
         0         0         0         0         0         0         0         0
         0         0         0         0         0         0         0         0
         0         0         0         0         0         0         0         0
         0         0         0         0         0         0         0         0
         0         0         0         0         0         0         0         0
         0         0         0         0         0         0         0         0
         0         0         0         0         0         0         0         0
         0         0         0         0         0         0         0         0
         0         0         0         0         0         0         0         0
         0         0         0         0         0         0         0         0
         0         0         0         0         0         0         0         0
         0         0         0         0         0         0         0         0
         0         0         0         0         0         0         0         0
         0         0         0         0         0         0         0         0
         0         0         0         0         0         0         0         0
         0         0         0         0         0         0         0         0
         0         0         0         0         0         0         0         0
         0         0         0         0         0         0         0         0
         0         0         0         0         0         0         0         0
         0         0         0         0         0         0         0         0
         0         0         0         0         0         0         0         0
         0         0         0         0         0         0         0         0
         0         0         0         0         0         0         0         0
         0         0         0         0         0         0         0         0
         0         0         0         0         0         0         0         0
         0         0         0         0         0         0         0         0
         0         0         0         0         0         0         0         0
         0         0         0         0         0         0         0         0
         0         0         0         0         0         0         0         0
         0         0         0         0         0         0         0         0
         0         0         0         0         0         0         0         0
         0         0         0         0         0         0         0         0
         0         0         0         0         0         0         0         0
         0         0         0         0         0         0         0         0
         0         0         0         0         0         0         0         0
         0         0         0         0         0         0         0         0
         0         0         0         0         0         0         0         0
         0         0         0         0         0         0         0         0
         0         0         0         0         0         0         0         0
         0         0         0         0         0         0         0         0
         0         0         0         0         0         0         0         0
         0         0         0         0         0         0         0         0
         0         0         0         0         0         0         0         0
         0         0         0         0         0         0         0         0
         0         0         0         0         0         0         0         0
         0         0         0         0         0         0         0         0
         0         0         0         0         0         0         0         0
         0         0         0         0         0         0         0         0
         0         0         0         0         0         0         0         0
         0         0         0         0         0         0         0         0
         0         0         0         0         0         0         0         0
         0         0         0         0         0         0         0         0
         0         0         0         0         0         0         0         0
         0         0         0         0         0         0         0         0
         0         0         0         0         0         0         0         0
         0         0         0         0         0         0         0         0
         0         0         0         0         0         0         0         0
         0         0         0         0         0         0         0         0
         0         0         0         0         0         0         0         0
         0         0         0         0         0         0         0         0
         0         0         0         0         0         0         0         0
         0         0         0         0         0         0         0         0
         0         0         0         0         0         0         0         0
         0         0         0         0         0         0         0         0
         0         0         0         0         0         0         0         0
         0         0         0         0         0         0         0         0
         0         0         0         0         0         0         0         0
         0         0         0         0         0         0         0         0
         0         0         0         0         0         0         0         0
         0         0         0         0         0         0         0         0
         0         0         0         0         0         0         0         0
         0         0         0         0         0         0         0         0
         0         0         0         0         0         0         0         0
         0         0         0         0         0         0         0         0
         0         0         0         0         0         0         0         0
         0         0         0         0         0         0         0         0
         0         0         0         0         0         0         0         0
         0         0         0         0         0         0         0         0
         0         0         0         0         0         0         0         0
         0         0         0         0         0         0         0         0
         0         0         0         0         0         0         0         0
         0         0         0         0         0         0         0         0
         0         0         0         0         0         0         0         0
         0         0         0         0         0         0         0         0
         0         0         0         0         0         0         0         0
         0         0         0         0         0         0         0         0
         0         0         0         0         0         0         0         0
         0         0         0         0         0         0         0         0
         0         0         0         0         0         0         0         0
         0         0         0         0         0         0         0         0
         0         0         0         0         0         0         0         0
         0         0         0         0         0         0         0         0
         0         0         0         0         0         0         0         0
         0         0         0         0         0         0         0         0
         0         0         0         0         0         0         0         0
         0         0         0         0         0         0         0         0
         0         0         0         0         0         0         0         0
         0         0         0         0         0         0         0         0
         0         0         0         0         0         0         0         0
         0         0         0         0         0         0         0         0
         0         0         0         0         0         0         0         0
         0         0         0         0         0         0         0         0
         0         0         0         0         0         0         0         0
         0         0         0         0         0         0         0         0
         0         0         0         0         0         0         0         0
         0         0         0         0         0         0         0         0
         0         0         0         0         0         0         0         0
         0         0         0         0         0         0         0         0
         0         0         0         0         0         0         0         0
         0         0         0         0         0         0         0         0
         0         0         0         0         0         0         0         0
         0         0         0         0         0         0         0         0
         0         0         0         0         0         0         0         0
         0         0         0         0         0         0         0         0
         0         0         0         0         0         0         0         0
         0         0         0         0         0         0         0         0
         0         0         0         0         0         0         0         0
         0         0         0         0         0         0         0         0
         0         0         0         0         0         0         0         0
         0         0         0         0         0         0         0         0
         0         0         0         0         0         0         0         0
         0         0         0         0         0         0         0         0
         0         0         0         0         0         0         0         0
         0         0         0         0         0         0         0         0
         0         0         0         0         0         0         0         0
         0         0         0         0         0         0         0         0
         0         0         0         0         0         0         0         0
         0         0         0         0         0         0         0         0
         0         0         0         0         0         0         0         0
         0         0         0         0         0         0         0         0
         0         0         0         0         0         0         0         0
         0         0         0         0         0         0         0         0
         0         0         0         0         0         0         0         0
         0         0         0         0         0         0         0         0
         0         0         0         0         0         0         0         0
         0         0         0         0         0         0         0         0
         0         0         0         0         0         0         0         0
         0         0         0         0         0         0         0         0
         0         0         0         0         0         0         0         0
         0         0         0         0         0         0         0         0
         0         0         0         0         0         0         0         0
         0         0         0         0         0         0         0         0
         0         0         0         0         0         0         0         0
         0         0         0         0         0         0         0         0
         0         0         0         0         0         0         0         0
         0         0         0         0         0         0         0         0
         0         0         0         0         0         0         0         0
         0         0         0         0         0         0         0         0
         0         0         0         0         0         0         0         0
         0         0         0         0         0         0         0         0
         0         0         0         0         0         0         0         0
         0         0         0         0         0         0         0         0
         0         0         0         0         0         0         0         0
         0         0         0         0         0         0         0         0
         0         0         0         0         0         0         0         0
         0         0         0         0         0         0         0         0
         0         0         0         0         0         0         0         0
         0         0         0         0         0         0         0         0
         0         0         0         0         0         0         0         0
         0         0         0         0         0         0         0         0
         0         0         0         0         0         0         0         0
         0         0         0         0         0         0         0         0
         0         0         0         0         0         0         0         0
         0         0         0         0         0         0         0         0
         0         0         0         0         0         0         0         0
         0         0         0         0         0         0         0         0
         0         0         0         0         0         0         0         0
         0         0         0         0         0         0         0         0
         0         0         0         0         0         0         0         0
         0         0         0         0         0         0         0         0
         0         0         0         0         0         0         0         0
         0         0         0         0         0         0         0         0
         0         0         0         0         0         0         0         0
         0         0         0         0         0         0         0         0
         0         0         0         0         0         0         0         0
         0         0         0         0         0         0         0         0
         0         0         0         0         0         0         0         0
         0         0         0         0         0         0         0         0
         0         0         0         0         0         0         0         0
         0         0         0         0         0         0         0         0
         0         0         0         0         0         0         0         0
         0         0         0         0         0         0         0         0
         0         0         0         0         0         0         0         0
         0         0         0         0         0         0         0         0
         0         0         0         0         0         0         0         0
         0         0         0         0         0         0         0         0
         0         0         0         0         0         0         0         0
         0         0         0         0         0         0         0         0
         0         0         0         0         0         0         0         0
         0         0         0         0         0         0         0         0
         0         0         0         0         0         0         0         0
         0         0         0         0         0         0         0         0
         0         0         0         0         0         0         0         0
         0         0         0         0         0         0         0         0
         0         0         0         0         0         0         0         0
         0         0         0         0         0         0         0         0
         0         0         0         0         0         0         0         0
         0         0         0         0         0         0         0         0
         0         0         0         0         0         0         0         0
         0         0         0         0         0         0         0         0
         0         0         0         0         0         0         0         0
         0         0         0         0         0         0         0         0
         0         0         0         0         0         0         0         0
         0         0         0         0         0         0         0         0
         0         0         0         0         0         0         0         0
         0         0         0         0         0         0         0         0
         0         0         0         0         0         0         0         0
         0         0         0         0         0         0         0         0
         0         0         0         0         0         0         0         0
         0         0         0         0         0         0         0         0
         0         0         0         0         0         0         0         0
         0         0         0         0         0         0         0         0
         0         0         0         0         0         0         0         0
         0         0         0         0         0         0         0         0
         0         0         0         0         0         0         0         0
         0         0         0         0         0         0         0         0
         0         0         0         0         0         0         0         0
         0         0         0         0         0         0         0         0
         0         0         0         0         0         0         0         0
         0         0         0         0         0         0         0         0
         0         0         0         0         0         0         0         0
         0         0         0         0         0         0         0         0
         0         0         0         0         0         0         0         0
         0         0         0         0         0         0         0         0
         0         0         0         0         0         0         0         0
         0         0         0         0         0         0         0         0
         0         0         0         0         0         0         0         0
         0         0         0         0         0         0         0         0
         0         0         0         0         0         0         0         0
         0         0         0         0         0         0         0         0
         0         0         0         0         0         0         0         0
         0         0         0         0         0         0         0         0
         0         0         0         0         0         0         0         0
         0         0         0         0         0         0         0         0
         0         0         0         0         0         0         0         0
         0         0         0         0         0         0         0         0
         0         0         0         0         0         0         0         0
         0         0         0         0         0         0         0         0
         0         0         0         0         0         0         0         0
         0         0         0         0         0         0         0         0
         0         0         0         0         0         0         0         0
         0         0         0         0         0         0         0         0
         0         0         0         0         0         0         0         0
         0         0         0         0         0         0         0         0
         0         0         0         0         0         0         0         0
         0         0         0         0         0         0         0         0
         0         0         0         0         0         0         0         0
         0         0         0         0         0         0         0         0
         0         0         0         0         0         0         0         0
         0         0         0         0         0         0         0         0
         0         0         0         0         0         0         0         0
         0         0         0         0         0         0         0         0
         0         0         0         0         0         0         0         0
         0         0         0         0         0         0         0         0
         0         0         0         0         0         0         0         0
         0         0         0         0         0         0         0         0
         0         0         0         0         0         0         0         0
         0         0         0         0         0         0         0         0
         0         0         0         0         0         0         0         0
         0         0         0         0         0         0         0         0
         0         0         0         0         0         0         0         0
         0         0         0         0         0         0         0         0
         0         0         0         0         0         0         0         0
         0         0         0         0         0         0         0         0
         0         0         0         0         0         0         0         0
         0         0         0         0         0         0         0         0
         0         0         0         0         0         0         0         0
         0         0         0         0         0         0         0         0
         0         0         0         0         0         0         0         0
         0         0         0         0         0         0         0         0
         0         0         0         0         0         0         0         0
         0         0         0         0         0         0         0         0
         0         0         0         0         0         0         0         0
         0         0         0         0         0         0         0         0
         0         0         0         0         0         0         0         0
         0         0         0         0         0         0         0         0
         0         0         0         0         0         0         0         0
         0         0         0         0         0         0         0         0
         0         0         0         0         0         0         0         0
         0         0         0         0         0         0         0         0
         0         0         0         0         0         0         0         0
         0         0         0         0         0         0         0         0
         0         0         0         0         0         0         0         0
         0         0         0         0         0         0         0         0
         0         0         0         0         0         0         0         0
         0         0         0         0         0         0         0         0
         0         0         0         0         0         0         0         0
         0         0         0         0         0         0         0         0
         0         0         0         0         0         0         0         0
         0         0         0         0         0         0         0         0
         0         0         0         0         0         0         0         0
         0         0         0         0         0         0         0         0
         0         0         0         0         0         0         0         0
         0         0         0         0         0         0         0         0
         0         0         0         0         0         0         0         0
         0         0         0         0         0         0         0         0
         0         0         0         0         0         0         0         0
         0         0         0         0         0         0         0         0
         0         0         0         0         0         0         0         0
         0         0         0         0         0         0         0         0
         0         0         0         0         0         0         0         0
         0         0         0         0         0         0         0         0
         0         0         0         0         0         0         0         0
         0         0         0         0         0         0         0         0
         0         0         0         0         0         0         0         0
         0         0         0         0         0         0         0         0
         0         0         0         0         0         0         0         0
         0         0         0         0         0         0         0         0
         0         0         0         0         0         0         0         0
         0         0         0         0         0         0         0         0
         0         0         0         0         0         0         0         0
         0         0         0         0         0         0         0         0
         0         0         0         0         0         0         0         0
         0         0         0         0         0         0         0         0
         0         0         0         0         0         0         0         0
         0         0         0         0         0         0         0         0
         0         0         0         0         0         0         0         0
         0         0         0         0         0         0         0         0
         0         0         0         0         0         0         0         0
         0         0         0         0         0         0         0         0
         0         0         0         0         0         0         0         0
         0         0         0         0         0         0         0         0
         0         0         0         0         0         0         0         0
         0         0         0         0         0         0         0         0
         0         0         0         0         0         0         0         0
         0         0         0         0         0         0         0         0
         0         0         0         0         0         0         0         0
         0         0         0         0         0         0         0         0
         0         0         0         0         0         0         0         0
         0         0         0         0         0         0         0         0
         0         0         0         0         0         0         0         0
         0         0         0         0         0         0         0         0
         0         0         0         0         0         0         0         0
         0         0         0         0         0         0         0         0
         0         0         0         0         0         0         0         0
         0         0         0         0         0         0         0         0
         0         0         0         0         0         0         0         0
         0         0         0         0         0         0         0         0
         0         0         0         0         0         0         0         0
         0         0         0         0         0         0         0         0
         0         0         0         0         0         0         0         0
         0         0         0         0         0         0         0         0
         0         0         0         0         0         0         0         0
         0         0         0         0         0         0         0         0
         0         0         0         0         0         0         0         0
         0         0         0         0         0         0         0         0
         0         0         0         0         0         0         0         0
         0         0         0         0         0         0         0         0
         0         0         0         0         0         0         0         0
         0         0         0         0         0         0         0         0
         0         0         0         0         0         0         0         0
         0         0         0         0         0         0         0         0
         0         0         0         0         0         0         0         0
         0         0         0         0
         0         0         0         0         0         0         0         0
         0         0         0         0         0         0         0         0
         0         0         0         0         0         0         0         0
         0         0         0         0         0         0         0         0
         0         0         0         0         0         0         0         0
         0         0         0         0         0         0         0         0
         0         0         0         0         0         0         0         0
         0         0         0         0         0         0         0         0
         0         0         0         0         0         0         0         0
         0         0         0         0         0         0         0         0
         0         0         0         0         0         0         0         0
         0         0         0         0         0         0         0         0
         0         0         0         0         0         0         0         0
         0         0         0         0         0         0         0         0
         0         0         0         0         0         0         0         0
         0         0         0         0         0         0         0         0
         0         0         0         0         0         0         0         0
         0         0         0         0         0         0         0         0
         0         0         0         0         0         0         0         0
         0         0         0         0         0         0         0         0
         0         0         0         0         0         0         0         0
         0         0         0         0         0         0         0         0
         0         0         0         0         0         0         0         0
         0         0         0         0         0         0         0         0
         0         0         0         0         0         0         0         0
         0         0         0         0         0         0         0         0
         0         0         0         0         0         0         0         0
         0         0         0         0         0         0         0         0
         0         0         0         0         0         0         0         0
         0         0         0         0         0         0         0         0
         0         0         0         0         0         0         0         0
         0         0         0         0         0         0         0         0
         0         0         0         0         0         0         0         0
         0         0         0         0         0         0         0         0
         0         0         0         0         0         0         0         0
         0         0         0         0         0         0         0         0
         0         0         0         0         0         0         0         0
         0         0         0         0         0         0         0         0
         0         0         0         0         0         0         0         0
         0         0         0         0         0         0         0         0
         0         0         0         0         0         0         0         0
         0         0         0         0         0         0         0         0
         0         0         0         0         0         0         0         0
         0         0         0         0         0         0         0         0
         0         0         0         0         0         0         0         0
         0         0         0         0         0         0         0         0
         0         0         0         0         0         0         0         0
         0         0         0         0         0         0         0         0
         0         0         0         0         0         0         0         0
         0         0         0         0         0         0         0         0
         0         0         0         0         0         0         0         0
         0         0         0         0         0         0         0         0
         0         0         0         0         0         0         0         0
         0         0         0         0         0         0         0         0
         0         0         0         0         0         0         0         0
         0         0         0         0         0         0         0         0
         0         0         0         0         0         0         0         0
         0         0         0         0         0         0         0         0
         0         0         0         0         0         0         0         0
         0         0         0         0         0         0         0         0
         0         0         0         0         0         0         0         0
         0         0         0         0         0         0         0         0
         0         0         0         0         0         0         0         0
         0         0         0         0         0         0         0         0
         0         0         0         0         0         0         0         0
         0         0         0         0         0         0         0         0
         0         0         0         0         0         0         0         0
         0         0         0         0         0         0         0         0
         0         0         0         0         0         0         0         0
         0         0         0         0         0         0         0         0
         0         0         0         0         0         0         0         0
         0         0         0         0         0         0         0         0
         0         0         0         0         0         0         0         0
         0         0         0         0         0         0         0         0
         0         0         0         0         0         0         0         0
         0         0         0         0         0         0         0         0
         0         0         0         0         0         0         0         0
         0         0         0         0         0         0         0         0
         0         0         0         0         0         0         0         0
         0         0         0         0         0         0         0         0
         0         0         0         0         0         0         0         0
         0         0         0         0         0         0         0         0
         0         0         0         0         0         0         0         0
         0         0         0         0         0         0         0         0
         0         0         0         0         0         0         0         0
         0         0         0         0         0         0         0         0
         0         0         0         0         0         0         0         0
         0         0         0         0         0         0         0         0
         0         0         0         0         0         0         0         0
         0         0         0         0         0         0         0         0
         0         0         0         0         0         0         0         0
         0         0         0         0         0         0         0         0
         0         0         0         0         0         0         0         0
         0         0         0         0         0         0         0         0
         0         0         0         0         0         0         0         0
         0         0         0         0         0         0         0         0
         0         0         0         0         0         0         0         0
         0         0         0         0         0         0         0         0
         0         0         0         0         0         0         0         0
         0         0         0         0         0         0         0         0
         0         0         0         0         0         0         0         0
         0         0         0         0         0         0         0         0
         0         0         0         0         0         0         0         0
         0         0         0         0         0         0         0         0
         0         0         0         0         0         0         0         0
         0         0         0         0         0         0         0         0
         0         0         0         0         0         0         0         0
         0         0         0         0         0         0         0         0
         0         0         0         0         0         0         0         0
         0         0         0         0         0         0         0         0
         0         0         0         0         0         0         0         0
         0         0         0         0         0         0         0         0
         0         0         0         0         0         0         0         0
         0         0         0         0         0         0         0         0
         0         0         0         0         0         0         0         0
         0         0         0         0         0         0         0         0
         0         0         0         0         0         0         0         0
         0         0         0         0         0         0         0         0
         0         0         0         0         0         0         0         0
         0         0         0         0         0         0         0         0
         0         0         0         0         0         0         0         0
         0         0         0         0         0         0         0         0
         0         0         0         0         0         0         0         0
         0         0         0         0         0         0         0         0
         0         0         0         0         0         0         0         0
         0         0         0         0         0         0         0         0
         0         0         0         0         0         0         0         0
         0         0         0         0         0         0         0         0
         0         0         0         0         0         0         0         0
         0         0         0         0         0         0         0         0
         0         0         0         0         0         0         0         0
         0         0         0         0         0         0         0         0
         0         0         0         0         0         0         0         0
         0         0         0         0         0         0         0         0
         0         0         0         0         0         0         0         0
         0         0         0         0         0         0         0         0
         0         0         0         0         0         0         0         0
         0         0         0         0         0         0         0         0
         0         0         0         0         0         0         0         0
         0         0         0         0         0         0         0         0
         0         0         0         0         0         0         0         0
         0         0         0         0         0         0         0         0
         0         0         0         0         0         0         0         0
         0         0         0         0         0         0         0         0
         0         0         0         0         0         0         0         0
         0         0         0         0         0         0         0         0
         0         0         0         0         0         0         0         0
         0         0         0         0         0         0         0         0
         0         0         0         0         0         0         0         0
         0         0         0         0         0         0         0         0
         0         0         0         0         0         0         0         0
         0         0         0         0         0         0         0         0
         0         0         0         0         0         0         0         0
         0         0         0         0         0         0         0         0
         0         0         0         0         0         0         0         0
         0         0         0         0         0         0         0         0
         0         0         0         0         0         0         0         0
         0         0         0         0         0         0         0         0
         0         0         0         0         0         0         0         0
         0         0         0         0         0         0         0         0
         0         0         0         0         0         0         0         0
         0         0         0         0         0         0         0         0
         0         0         0         0         0         0         0         0
         0         0         0         0         0         0         0         0
         0         0         0         0         0         0         0         0
         0         0         0         0         0         0         0         0
         0         0         0         0         0         0         0         0
         0         0         0         0         0         0         0         0
         0         0         0         0         0         0         0         0
         0         0         0         0         0         0         0         0
         0         0         0         0         0         0         0         0
         0         0         0         0         0         0         0         0
         0         0         0         0         0         0         0         0
         0         0         0         0         0         0         0         0
         0         0         0         0         0         0         0         0
         0         0         0         0         0         0         0         0
         0         0         0         0         0         0         0         0
         0         0         0         0         0         0         0         0
         0         0         0         0         0         0         0         0
         0         0         0         0         0         0         0         0
         0         0         0         0         0         0         0         0
         0         0         0         0         0         0         0         0
         0         0         0         0         0         0         0         0
         0         0         0         0         0         0         0         0
         0         0         0         0         0         0         0         0
         0         0         0         0         0         0         0         0
         0         0         0         0         0         0         0         0
         0         0         0         0         0         0         0         0
         0         0         0         0         0         0         0         0
         0         0         0         0         0         0         0         0
         0         0         0         0         0         0         0         0
         0         0         0         0         0         0         0         0
         0         0         0         0         0         0         0         0
         0         0         0         0         0         0         0         0
         0         0         0         0         0         0         0         0
         0         0         0         0         0         0         0         0
         0         0         0         0         0         0         0         0
         0         0         0         0         0         0         0         0
         0         0         0         0         0         0         0         0
         0         0         0         0         0         0         0         0
         0         0         0         0         0         0         0         0
         0         0         0         0         0         0         0         0
         0         0         0         0         0         0         0         0
         0         0         0         0         0         0         0         0
         0         0         0         0         0         0         0         0
         0         0         0         0         0         0         0         0
         0         0         0         0         0         0         0         0
         0         0         0         0         0         0         0         0
         0         0         0         0         0         0         0         0
         0         0         0         0         0         0         0         0
         0         0         0         0         0         0         0         0
         0         0         0         0         0         0         0         0
         0         0         0         0         0         0         0         0
         0         0         0         0         0         0         0         0
         0         0         0         0         0         0         0         0
         0         0         0         0         0         0         0         0
         0         0         0         0         0         0         0         0
         0         0         0         0         0         0         0         0
         0         0         0         0         0         0         0         0
         0         0         0         0         0         0         0         0
         0         0         0         0         0         0         0         0
         0         0         0         0         0         0         0         0
         0         0         0         0         0         0         0         0
         0         0         0         0         0         0         0         0
         0         0         0         0         0         0         0         0
         0         0         0         0         0         0         0         0
         0         0         0         0         0         0         0         0
         0         0         0         0         0         0         0         0
         0         0         0         0         0         0         0         0
         0         0         0         0         0         0         0         0
         0         0         0         0         0         0         0         0
         0         0         0         0         0         0         0         0
         0         0         0         0         0         0         0         0
         0         0         0         0         0         0         0         0
         0         0         0         0         0         0         0         0
         0         0         0         0         0         0         0         0
         0         0         0         0         0         0         0         0
         0         0         0         0         0         0         0         0
         0         0         0         0         0         0         0         0
         0         0         0         0         0         0         0         0
         0         0         0         0         0         0         0         0
         0         0         0         0         0         0         0         0
         0         0         0         0         0         0         0         0
         0         0         0         0         0         0         0         0
         0         0         0         0         0         0         0         0
         0         0         0         0         0         0         0         0
         0         0         0         0         0         0         0         0
         0         0         0         0         0         0         0         0
         0         0         0         0         0         0         0         0
         0         0         0         0         0         0         0         0
         0         0         0         0         0         0         0         0
         0         0         0         0         0         0         0         0
         0         0         0         0         0         0         0         0
         0         0         0         0         0         0         0         0
         0         0         0         0         0         0         0         0
         0         0         0         0         0         0         0         0
         0         0         0         0         0         0         0         0
         0         0         0         0         0         0         0         0
         0         0         0         0         0         0         0         0
         0         0         0         0         0         0         0         0
         0         0         0         0         0         0         0         0
         0         0         0         0         0         0         0         0
         0         0         0         0         0         0         0         0
         0         0         0         0         0         0         0         0
         0         0         0         0         0         0         0         0
         0         0         0         0         0         0         0         0
         0         0         0         0         0         0         0         0
         0         0         0         0         0         0         0         0
         0         0         0         0         0         0         0         0
         0         0         0         0         0         0         0         0
         0         0         0         0         0         0         0         0
         0         0         0         0         0         0         0         0
         0         0         0         0         0         0         0         0
         0         0         0         0         0         0         0         0
         0         0         0         0         0         0         0         0
         0         0         0         0         0         0         0         0
         0         0         0         0         0         0         0         0
         0         0         0         0         0         0         0         0
         0         0         0         0         0         0         0         0
         0         0         0         0         0         0         0         0
         0         0         0         0         0         0         0         0
         0         0         0         0         0         0         0         0
         0         0         0         0         0         0         0         0
         0         0         0         0         0         0         0         0
         0         0         0         0         0         0         0         0
         0         0         0         0         0         0         0         0
         0         0         0         0         0         0         0         0
         0         0         0         0         0         0         0         0
         0         0         0         0         0         0         0         0
         0         0         0         0         0         0         0         0
         0         0         0         0         0         0         0         0
         0         0         0         0         0         0         0         0
         0         0         0         0         0         0         0         0
         0         0         0         0         0         0         0         0
         0         0         0         0         0         0         0         0
         0         0         0         0         0         0         0         0
         0         0         0         0         0         0         0         0
         0         0         0         0         0         0         0         0
         0         0         0         0         0         0         0         0
         0         0         0         0         0         0         0         0
         0         0         0         0         0         0         0         0
         0         0         0         0         0         0         0         0
         0         0         0         0         0         0         0         0
         0         0         0         0         0         0         0         0
         0         0         0         0         0         0         0         0
         0         0         0         0         0         0         0         0
         0         0         0         0         0         0         0         0
         0         0         0         0         0         0         0         0
         0         0         0         0         0         0         0         0
         0         0         0         0         0         0         0         0
         0         0         0         0         0         0         0         0
         0         0         0         0         0         0         0         0
         0         0         0         0         0         0         0         0
         0         0         0         0         0         0         0         0
         0         0         0         0         0         0         0         0
         0         0         0         0         0         0         0         0
         0         0         0         0         0         0         0         0
         0         0         0         0         0         0         0         0
         0         0         0         0         0         0         0         0
         0         0         0         0         0         0         0         0
         0         0         0         0         0         0         0         0
         0         0         0         0         0         0         0         0
         0         0         0         0         0         0         0         0
         0         0         0         0         0         0         0         0
         0         0         0         0         0         0         0         0
         0         0         0         0         0         0         0         0
         0         0         0         0         0         0         0         0
         0         0         0         0         0         0         0         0
         0         0         0         0         0         0         0         0
         0         0         0         0         0         0         0         0
         0         0         0         0         0         0         0         0
         0         0         0         0         0         0         0         0
         0         0         0         0         0         0         0         0
         0         0         0         0         0         0         0         0
         0         0         0         0         0         0         0         0
         0         0         0         0         0         0         0         0
         0         0         0         0         0         0         0         0
         0         0         0         0         0         0         0         0
         0         0         0         0         0         0         0         0
         0         0         0         0         0         0         0         0
         0         0         0         0         0         0         0         0
         0         0         0         0         0         0         0         0
         0         0         0         0         0         0         0         0
         0         0         0         0         0         0         0         0
         0         0         0         0         0         0         0         0
         0         0         0         0         0         0         0         0
         0         0         0         0         0         0         0         0
         0         0         0         0         0         0         0         0
         0         0         0         0         0         0         0         0
         0         0         0         0         0         0         0         0
         0         0         0         0         0         0         0         0
         0         0         0         0         0         0         0         0
         0         0         0         0         0         0         0         0
         0         0         0         0         0         0         0         0
         0         0         0         0         0         0         0         0
         0         0         0         0         0         0         0         0
         0         0         0         0         0         0         0         0
         0         0         0         0         0         0         0         0
         0         0         0         0         0         0         0         0
         0         0         0         0         0         0         0         0
         0         0         0         0         0         0         0         0
         0         0         0         0         0         0         0         0
         0         0         0         0         0         0         0         0
         0         0         0         0         0         0         0         0
         0         0         0         0         0         0         0         0
         0         0         0         0         0         0         0         0
         0         0         0         0         0         0         0         0
         0         0         0         0         0         0         0         0
         0         0         0         0         0         0         0         0
         0         0         0         0         0         0         0         0
         0         0         0         0         0         0         0         0
         0         0         0         0         0         0         0         0
         0         0         0         0         0         0         0         0
         0         0         0         0         0         0         0         0
         0         0         0         0         0         0         0         0
         0         0         0         0         0         0         0         0
         0         0         0         0         0         0         0         0
         0         0         0         0         0         0         0         0
         0         0         0         0         0         0         0         0
         0         0         0         0         0         0         0         0
         0         0         0         0         0         0         0         0
         0         0         0         0         0         0         0         0
         0         0         0         0         0         0         0         0
         0         0         0         0         0         0         0         0
         0         0         0         0         0         0         0         0
         0         0         0         0         0         0         0         0
         0         0         0         0         0         0         0         0
         0         0         0         0         0         0         0         0
         0         0         0         0         0         0         0         0
         0         0         0         0         0         0         0         0
         0         0         0         0         0         0         0         0
         0         0         0         0         0         0         0         0
         0         0         0         0         0         0         0         0
         0         0         0         0         0         0         0         0
         0         0         0         0         0         0         0         0
         0         0         0         0         0         0         0         0
         0         0         0         0         0         0         0         0
         0         0         0         0         0         0         0         0
         0         0         0         0         0         0         0         0
         0         0         0         0         0         0         0         0
         0         0         0         0         0         0         0         0
         0         0         0         0         0         0         0         0
         0         0         0         0         0         0         0         0
         0         0         0         0         0         0         0         0
         0         0         0         0         0         0         0         0
         0         0         0         0         0         0         0         0
         0         0         0         0         0         0         0         0
         0         0         0         0         0         0         0         0
         0         0         0         0         0         0         0         0
         0         0         0         0         0         0         0         0
         0         0         0         0         0         0         0         0
         0         0         0         0         0         0         0         0
         0         0         0         0         0         0         0         0
         0         0         0         0         0         0         0         0
         0         0         0         0         0         0         0         0
         0         0         0         0         0         0         0         0
         0         0         0         0         0         0         0         0
         0         0         0         0         0         0         0         0
         0         0         0         0         0         0         0         0
         0         0         0         0         0         0         0         0
         0         0         0         0         0         0         0         0
         0         0         0         0         0         0         0         0
         0         0         0         0         0         0         0         0
         0         0         0         0         0         0         0         0
         0         0         0         0         0         0         0         0
         0         0         0         0         0         0         0         0
         0         0         0         0         0         0         0         0
         0         0         0         0         0         0         0         0
         0         0         0         0         0         0         0         0
         0         0         0         0         0         0         0         0
         0         0         0         0         0         0         0         0
         0         0         0         0         0         0         0         0
         0         0         0         0         0         0         0         0
         0         0         0         0         0         0         0         0
         0         0         0         0         0         0         0         0
         0         0         0         0         0         0         0         0
         0         0         0         0         0         0         0         0
         0         0         0         0         0         0         0         0
         0         0         0         0         0         0         0         0
         0         0         0         0         0         0         0         0
         0         0         0         0         0         0         0         0
         0         0         0         0         0         0         0         0
         0         0         0         0         0         0         0         0
         0         0         0         0         0         0         0         0
         0         0         0         0         0         0         0         0
         0         0         0         0         0         0         0         0
         0         0         0         0         0         0         0         0
         0         0         0         0         0         0         0         0
         0         0         0         0         0         0         0         0
         0         0         0         0         0         0         0         0
         0         0         0         0         0         0         0         0
         0         0         0         0         0         0         0         0
         0         0         0         0         0         0         0         0
         0         0         0         0         0         0         0         0
         0         0         0         0         0         0         0         0
         0         0         0         0         0         0         0         0
         0         0         0         0         0         0         0         0
         0         0         0         0         0         0         0         0
         0         0         0         0         0         0         0         0
         0         0         0         0         0         0         0         0
         0         0         0         0         0         0         0         0
         0         0         0         0         0         0         0         0
         0         0         0         0         0         0         0         0
         0         0         0         0         0         0         0         0
         0         0         0         0         0         0         0         0
         0         0         0         0         0         0         0         0
         0         0         0         0         0         0         0         0
         0         0         0         0         0         0         0         0
         0         0         0         0         0         0         0         0
         0         0         0         0         0         0         0         0
         0         0         0         0         0         0         0         0
         0         0         0         0         0         0         0         0
         0         0         0         0         0         0         0         0
         0         0         0         0         0         0         0         0
         0         0         0         0         0         0         0         0
         0         0         0         0         0         0         0         0
         0         0         0         0         0         0         0         0
         0         0         0         0         0         0         0         0
         0         0         0         0         0         0         0         0
         0         0         0         0         0         0         0         0
         0         0         0         0         0         0         0         0
         0         0         0         0         0         0         0         0
         0         0         0         0         0         0         0         0
         0         0         0         0         0         0         0         0
         0         0         0         0         0         0         0         0
         0         0         0         0         0         0         0         0
         0         0         0         0         0         0         0         0
         0         0         0         0         0         0         0         0
         0         0         0         0         0         0         0         0
         0         0         0         0         0         0         0         0
         0         0         0         0         0         0         0         0
         0         0         0         0         0         0         0         0
         0         0         0         0         0         0         0         0
         0         0         0         0         0         0         0         0
         0         0         0         0         0         0         0         0
         0         0         0         0         0         0         0         0
         0         0         0         0         0         0         0         0
         0         0         0         0         0         0         0         0
         0         0         0         0         0         0         0         0
         0         0         0         0         0         0         0         0
         0         0         0         0         0         0         0         0
         0         0         0         0         0         0         0         0
         0         0         0         0         0         0         0         0
         0         0         0         0         0         0         0         0
         0         0         0         0         0         0         0         0
         0         0         0         0         0         0         0         0
         0         0         0         0         0         0         0         0
         0         0         0         0         0         0         0         0
         0         0         0         0         0         0         0         0
         0         0         0         0         0         0         0         0
         0         0         0         0         0         0         0         0
         0         0         0         0         0         0         0         0
         0         0         0         0         0         0         0         0
         0         0         0         0         0         0         0         0
         0         0         0         0         0         0         0         0
         0         0         0         0         0         0         0         0
         0         0         0         0         0         0         0         0
         0         0         0         0         0         0         0         0
         0         0         0         0         0         0         0         0
         0         0         0         0         0         0         0         0
         0         0         0         0         0         0         0         0
         0         0         0         0         0         0         0         0
         0         0         0         0         0         0         0         0
         0         0         0         0         0         0         0         0
         0         0         0         0         0         0         0         0
         0         0         0         0         0         0         0         0
         0         0         0         0         0         0         0         0
         0         0         0         0         0         0         0         0
         0         0         0         0         0         0         0         0
         0         0         0         0         0         0         0         0
         0         0         0         0         0         0         0         0
         0         0         0         0         0         0         0         0
         0         0         0         0         0         0         0         0
         0         0         0         0         0         0         0         0
         0         0         0         0         0         0         0         0
         0         0         0         0         0         0         0         0
         0         0         0         0         0         0         0         0
         0         0         0         0         0         0         0         0
         0         0         0         0         0         0         0         0
         0         0         0         0         0         0         0         0
         0         0         0         0         0         0         0         0
         0         0         0         0         0         0         0         0
         0         0         0         0         0         0         0         0
         0         0         0         0         0         0         0         0
         0         0         0         0         0         0         0         0
         0         0         0         0         0         0         0         0
         0         0         0         0         0         0         0         0
         0         0         0         0         0         0         0         0
         0         0         0         0         0         0         0         0
         0         0         0         0         0         0         0         0
         0         0         0         0         0         0         0         0
         0         0         0         0         0         0         0         0
         0         0         0         0         0         0         0         0
         0         0         0         0         0         0         0         0
         0         0         0         0         0         0         0         0
         0         0         0         0         0         0         0         0
         0         0         0         0         0         0         0         0
         0         0         0         0         0         0         0         0
         0         0         0         0         0         0         0         0
         0         0         0         0         0         0         0         0
         0         0         0         0         0         0         0         0
         0         0         0         0         0         0         0         0
         0         0         0         0         0         0         0         0
         0         0         0         0         0         0         0         0
         0         0         0         0         0         0         0         0
         0         0         0         0         0         0         0         0
         0         0         0         0         0         0         0         0
         0         0         0         0         0         0         0         0
         0         0         0         0         0         0         0         0
         0         0         0         0         0         0         0         0
         0         0         0         0         0         0         0         0
         0         0         0         0         0         0         0         0
         0         0         0         0         0         0         0         0
         0         0         0         0         0         0         0         0
         0         0         0         0         0         0         0         0
         0         0         0         0         0         0         0         0
         0         0         0         0         0         0         0         0
         0         0         0         0         0         0         0         0
         0         0         0         0         0         0         0         0
         0         0         0         0         0         0         0         0
         0         0         0         0         0         0         0         0
         0         0         0         0         0         0         0         0
         0         0         0         0         0         0         0         0
         0         0         0         0         0         0         0         0
         0         0         0         0         0         0         0         0
         0         0         0         0         0         0         0         0
         0         0         0         0         0         0         0         0
         0         0         0         0         0         0         0         0
         0         0         0         0         0         0         0         0
         0         0         0         0         0         0         0         0
         0         0         0         0         0         0         0         0
         0         0         0         0         0         0         0         0
         0         0         0         0         0         0         0         0
         0         0         0         0         0         0         0         0
         0         0         0         0         0         0         0         0
         0         0         0         0         0         0         0         0
         0         0         0         0         0         0         0         0
         0         0         0         0         0         0         0         0
         0         0         0         0         0         0         0         0
         0         0         0         0         0         0         0         0
         0         0         0         0         0         0         0         0
         0         0         0         0         0         0         0         0
         0         0         0         0         0         0         0         0
         0         0         0         0         0         0         0         0
         0         0         0         0         0         0         0         0
         0         0         0         0         0         0         0         0
         0         0         0         0         0         0         0         0
         0         0         0         0         0         0         0         0
         0         0         0         0         0         0         0         0
         0         0         0         0         0         0         0         0
         0         0         0         0         0         0         0         0
         0         0         0         0         0         0         0         0
         0         0         0         0         0         0         0         0
         0         0         0         0         0         0         0         0
         0         0         0         0         0         0         0         0
         0         0         0         0         0         0         0         0
         0         0         0         0         0         0         0         0
         0         0         0         0         0         0         0         0
         0         0         0         0         0         0         0         0
         0         0         0         0         0         0         0         0
         0         0         0         0         0         0         0         0
         0         0         0         0         0         0         0         0
         0         0         0         0         0         0         0         0
         0         0         0         0         0         0         0         0
         0         0         0         0         0         0         0         0
         0         0         0         0         0         0         0         0
         0         0         0         0         0         0         0         0
         0         0         0         0         0         0         0         0
         0         0         0         0         0         0         0         0
         0         0         0         0         0         0         0         0
         0         0         0         0         0         0         0         0
         0         0         0         0         0         0         0         0
         0         0         0         0         0         0         0         0
         0         0         0         0         0         0         0         0
         0         0         0         0         0         0         0         0
         0         0         0         0         0         0         0         0
         0         0         0         0         0         0         0         0
         0         0         0         0         0         0         0         0
         0         0         0         0         0         0         0         0
         0         0         0         0         0         0         0         0
         0         0         0         0         0         0         0         0
         0         0         0         0         0         0         0         0
         0         0         0         0         0         0         0         0
         0         0         0         0         0         0         0         0
         0         0         0         0         0         0         0         0
         0         0         0         0         0         0         0         0
         0         0         0         0         0         0         0         0
         0         0         0         0         0         0         0         0
         0         0         0         0         0         0         0         0
         0         0         0         0         0         0         0         0
         0         0         0         0         0         0         0         0
         0         0         0         0         0         0         0         0
         0         0         0         0         0         0         0         0
         0         0         0         0         0         0         0         0
         0         0         0         0         0         0         0         0
         0         0         0         0         0         0         0         0
         0         0         0         0         0         0         0         0
         0         0         0         0         0         0         0         0
         0         0         0         0         0         0         0         0
         0         0         0         0         0         0         0         0
         0         0         0         0         0         0         0         0
         0         0         0         0         0         0         0         0
         0         0         0         0         0         0         0         0
         0         0         0         0         0         0         0         0
         0         0         0         0         0         0         0         0
         0         0         0         0         0         0         0         0
         0         0         0         0         0         0         0         0
         0         0         0         0         0         0         0         0
         0         0         0         0         0         0         0         0
         0         0         0         0         0         0         0         0
         0         0         0         0         0         0         0         0
         0         0         0         0         0         0         0         0
         0         0         0         0         0         0         0         0
         0         0         0         0         0         0         0         0
         0         0         0         0         0         0         0         0
         0         0         0         0         0         0         0         0
         0         0         0         0         0         0         0         0
         0         0         0         0         0         0         0         0
         0         0         0         0         0         0         0         0
         0         0         0         0         0         0         0         0
         0         0         0         0         0         0         0         0
         0         0         0         0         0         0         0         0
         0         0         0         0         0         0         0         0
         0         0         0         0         0         0         0         0
         0         0         0         0         0         0         0         0
         0         0         0         0         0         0         0         0
         0         0         0         0         0         0         0         0
         0         0         0         0         0         0         0         0
         0         0         0         0         0         0         0         0
         0         0         0         0         0         0         0         0
         0         0         0         0         0         0         0         0
         0         0         0         0         0         0         0         0
         0         0         0         0         0         0         0         0
         0         0         0         0         0         0         0         0
         0         0         0         0         0         0         0         0
         0         0         0         0         0         0         0         0
         0         0         0         0         0         0         0         0
         0         0         0         0         0         0         0         0
         0         0         0         0         0         0         0         0
         0         0         0         0         0         0         0         0
         0         0         0         0         0         0         0         0
         0         0         0         0         0         0         0         0
         0         0         0         0         0         0         0         0
         0         0         0         0         0         0         0         0
         0         0         0         0         0         0         0         0
         0         0         0         0         0         0         0         0
         0         0         0         0         0         0         0         0
         0         0         0         0         0         0         0         0
         0         0         0         0         0         0         0         0
         0         0         0         0         0         0         0         0
         0         0         0         0         0         0         0         0
         0         0         0         0         0         0         0         0
         0         0         0         0         0         0         0         0
         0         0         0         0         0         0         0         0
         0         0         0         0         0         0         0         0
         0         0         0         0         0         0         0         0
         0         0         0         0         0         0         0         0
         0         0         0         0         0         0         0         0
         0         0         0         0         0         0         0         0
         0         0         0         0         0         0         0         0
         0         0         0         0         0         0         0         0
         0         0         0         0         0         0         0         0
         0         0         0         0         0         0         0         0
         0         0         0         0         0         0         0         0
         0         0         0         0         0         0         0         0
         0         0         0         0         0         0         0         0
         0         0         0         0         0         0         0         0
         0         0         0         0         0         0         0         0
         0         0         0         0         0         0         0         0
         0         0         0         0         0         0         0         0
         0         0         0         0         0         0         0         0
         0         0         0         0         0         0         0         0
         0         0         0         0         0         0         0         0
         0         0         0         0         0         0         0         0
         0         0         0         0         0         0         0         0
         0         0         0         0         0         0         0         0
         0         0         0         0         0         0         0         0
         0         0         0         0         0         0         0         0
         0         0         0         0         0         0         0         0
         0         0         0         0         0         0         0         0
         0         0         0         0         0         0         0         0
         0         0         0         0         0         0         0         0
         0         0         0         0         0         0         0         0
         0         0         0         0         0         0         0         0
         0         0         0         0         0         0         0         0
         0         0         0         0         0         0         0         0
         0         0         0         0         0         0         0         0
         0         0         0         0         0         0         0         0
         0         0         0         0         0         0         0         0
         0         0         0         0         0         0         0         0
         0         0         0         0         0         0         0         0
         0         0         0         0         0         0         0         0
         0         0         0         0         0         0         0         0
         0         0         0         0         0         0         0         0
         0         0         0         0         0         0         0         0
         0         0         0         0         0         0         0         0
         0         0         0         0         0         0         0         0
         0         0         0         0         0         0         0         0
         0         0         0         0         0         0         0         0
         0         0         0         0         0         0         0         0
         0         0         0         0         0         0         0         0
         0         0         0         0         0         0         0         0
         0         0         0         0         0         0         0         0
         0         0         0         0         0         0         0         0
         0         0         0         0         0         0         0         0
         0         0         0         0         0         0         0         0
         0         0         0         0         0         0         0         0
         0         0         0         0         0         0         0         0
         0         0         0         0         0         0         0         0
         0         0         0         0         0         0         0         0
         0         0         0         0         0         0         0         0
         0         0         0         0         0         0         0         0
         0         0         0         0         0         0         0         0
         0         0         0         0         0         0         0         0
         0         0         0         0         0         0         0         0
         0         0         0         0         0         0         0         0
         0         0         0         0         0         0         0         0
         0         0         0         0         0         0         0         0
         0         0         0         0         0         0         0         0
         0         0         0         0         0         0         0         0
         0         0         0         0         0         0         0         0
         0         0         0         0         0         0         0         0
         0         0         0         0         0         0         0         0
         0         0         0         0         0         0         0         0
         0         0         0         0         0         0         0         0
         0         0         0         0         0         0         0         0
         0         0         0         0         0         0         0         0
         0         0         0         0         0         0         0         0
         0         0         0         0         0         0         0         0
         0         0         0         0         0         0         0         0
         0         0         0         0         0         0         0         0
         0         0         0         0         0         0         0         0
         0         0         0         0         0         0         0         0
         0         0         0         0         0         0         0         0
         0         0         0         0         0         0         0         0
         0         0         0         0         0         0         0         0
         0         0         0         0         0         0         0         0
         0         0         0         0         0         0         0         0
         0         0         0         0         0         0         0         0
         0         0         0         0         0         0         0         0
         0         0         0         0         0         0         0         0
         0         0         0         0         0         0         0         0
         0         0         0         0         0         0         0         0
         0         0         0         0         0         0         0         0
         0         0         0         0         0         0         0         0
         0         0         0         0         0         0         0         0
         0         0         0         0         0         0         0         0
         0         0         0         0         0         0         0         0
         0         0         0         0         0         0         0         0
         0         0         0         0         0         0         0         0
         0         0         0         0         0         0         0         0
         0         0         0         0         0         0         0         0
         0         0         0         0         0         0         0         0
         0         0         0         0         0         0         0         0
         0         0         0         0         0         0         0         0
         0         0         0         0         0         0         0         0
         0         0         0         0         0         0         0         0
         0         0         0         0         0         0         0         0
         0         0         0         0         0         0         0         0
         0         0         0         0         0         0         0         0
         0         0         0         0         0         0         0         0
         0         0         0         0         0         0         0         0
         0         0         0         0         0         0         0         0
         0         0         0         0         0         0         0         0
         0         0         0         0         0         0         0         0
         0         0         0         0         0         0         0         0
         0         0         0         0         0         0         0         0
         0         0         0         0         0         0         0         0
         0         0         0         0         0         0         0         0
         0         0         0         0         0         0         0         0
         0         0         0         0         0         0         0         0
         0         0         0         0         0         0         0         0
         0         0         0         0         0         0         0         0
         0         0         0         0         0         0         0         0
         0         0         0         0         0         0         0         0
         0         0         0         0         0         0         0         0
         0         0         0         0         0         0         0         0
         0         0         0         0         0         0         0         0
         0         0         0         0         0         0         0         0
         0         0         0         0         0         0         0         0
         0         0         0         0         0         0         0         0
         0         0         0         0         0         0         0         0
         0         0         0         0         0         0         0         0
         0         0         0         0         0         0         0         0
         0         0         0         0         0         0         0         0
         0         0         0         0         0         0         0         0
         0         0         0         0         0         0         0         0
         0         0         0         0         0         0         0         0
         0         0         0         0         0         0         0         0
         0         0         0         0         0         0         0         0
         0         0         0         0         0         0         0         0
         0         0         0         0         0         0         0         0
         0         0         0         0         0         0         0         0
         0         0         0         0         0         0         0         0
         0         0         0         0         0         0         0         0
         0         0         0         0         0         0         0         0
         0         0         0         0         0         0         0         0
         0         0         0         0         0         0         0         0
         0         0         0         0         0         0         0         0
         0         0         0         0         0         0         0         0
         0         0         0         0         0         0         0         0
         0         0         0         0         0         0         0         0
         0         0         0         0         0         0         0         0
         0         0         0         0         0         0         0         0
         0         0         0         0         0         0         0         0
         0         0         0         0         0         0         0         0
         0         0         0         0         0         0         0         0
         0         0         0         0         0         0         0         0
         0         0         0         0         0         0         0         0
         0         0         0         0         0         0         0         0
         0         0         0         0         0         0         0         0
         0         0         0         0         0         0         0         0
         0         0         0         0         0         0         0         0
         0         0         0         0         0         0         0         0
         0         0         0         0         0         0         0         0
         0         0         0         0         0         0         0         0
         0         0         0         0         0         0         0         0
         0         0         0         0         0         0         0         0
         0         0         0         0         0         0         0         0
         0         0         0         0         0         0         0         0
         0         0         0         0         0         0         0         0
         0         0         0         0         0         0         0         0
         0         0         0         0         0         0         0         0
         0         0         0         0         0         0         0         0
         0         0         0         0         0         0         0         0
         0         0         0         0         0         0         0         0
         0         0         0         0         0         0         0         0
         0         0         0         0         0         0         0         0
         0         0         0         0         0         0         0         0
         0         0         0         0         0         0         0         0
         0         0         0         0         0         0         0         0
         0         0         0         0         0         0         0         0
         0         0         0         0         0         0         0         0
         0         0         0         0         0         0         0         0
         0         0         0         0         0         0         0         0
         0         0         0         0         0         0         0         0
         0         0         0         0         0         0         0         0
         0         0         0         0         0         0         0         0
         0         0         0         0         0         0         0         0
         0         0         0         0         0         0         0         0
         0         0         0         0         0         0         0         0
         0         0         0         0         0         0         0         0
         0         0         0         0         0         0         0         0
         0         0         0         0         0         0         0         0
         0         0         0         0         0         0         0         0
         0         0         0         0         0         0         0         0
         0         0         0         0         0         0         0         0
         0         0         0         0         0         0         0         0
         0         0         0         0         0         0         0         0
         0         0         0         0         0         0         0         0
         0         0         0         0         0         0         0         0
         0         0         0         0         0         0         0         0
         0         0         0         0         0         0         0         0
         0         0         0         0         0         0         0         0
         0         0         0         0         0         0         0         0
         0         0         0         0         0         0         0         0
         0         0         0         0         0         0         0         0
         0         0         0         0         0         0         0         0
         0         0         0         0         0         0         0         0
         0         0         0         0         0         0         0         0
         0         0         0         0         0         0         0         0
         0         0         0         0         0         0         0         0
         0         0         0         0         0         0         0         0
         0         0         0         0         0         0         0         0
         0         0         0         0         0         0         0         0
         0         0         0         0         0         0         0         0
         0         0         0         0         0         0         0         0
         0         0         0         0         0         0         0         0
         0         0         0         0         0         0         0         0
         0         0         0         0         0         0         0         0
         0         0         0         0         0         0         0         0
         0         0         0         0         0         0         0         0
         0         0         0         0         0         0         0         0
         0         0         0         0         0         0         0         0
         0         0         0         0         0         0         0         0
         0         0         0         0         0         0         0         0
         0         0         0         0         0         0         0         0
         0         0         0         0         0         0         0         0
         0         0         0         0         0         0         0         0
         0         0         0         0         0         0         0         0
         0         0         0         0         0         0         0         0
         0         0         0         0         0         0         0         0
         0         0         0         0         0         0         0         0
         0         0         0         0         0         0         0         0
         0         0         0         0         0         0         0         0
         0         0         0         0         0         0         0         0
         0         0         0         0         0         0         0         0
         0         0         0         0         0         0         0         0
         0         0         0         0         0         0         0         0
         0         0         0         0         0         0         0         0
         0         0         0         0         0         0         0         0
         0         0         0         0         0         0         0         0
         0         0         0         0         0         0         0         0
         0         0         0         0         0         0         0         0
         0         0         0         0         0         0         0         0
         0         0         0         0         0         0         0         0
         0         0         0         0         0         0         0         0
         0         0         0         0         0         0         0         0
         0         0         0         0         0         0         0         0
         0         0         0         0         0         0         0         0
         0         0         0         0         0         0         0         0
         0         0         0         0         0         0         0         0
         0         0         0         0         0         0         0         0
         0         0         0         0         0         0         0         0
         0         0         0         0         0         0         0         0
         0         0         0         0         0         0         0         0
         0         0         0         0         0         0         0         0
         0         0         0         0         0         0         0         0
         0         0         0         0         0         0         0         0
         0         0         0         0         0         0         0         0
         0         0         0         0         0         0         0         0
         0         0         0         0         0         0         0         0
         0         0         0         0         0         0         0         0
         0         0         0         0         0         0         0         0
         0         0         0         0         0         0         0         0
         0         0         0         0         0         0         0         0
         0         0         0         0         0         0         0         0
         0         0         0         0         0         0         0         0
         0         0         0         0         0         0         0         0
         0         0         0         0         0         0         0         0
         0         0         0         0         0         0         0         0
         0         0         0         0         0         0         0         0
         0         0         0         0         0         0         0         0
         0         0         0         0         0         0         0         0
         0         0         0         0         0         0         0         0
         0         0         0         0         0         0         0         0
         0         0         0         0         0         0         0         0
         0         0         0         0         0         0         0         0
         0         0         0         0         0         0         0         0
         0         0         0         0         0         0         0         0
         0         0         0         0         0         0         0         0
         0         0         0         0         0         0         0         0
         0         0         0         0         0         0         0         0
         0         0         0         0         0         0         0         0
         0         0         0         0         0         0         0         0
         0         0         0         0         0         0         0         0
         0         0         0         0         0         0         0         0
         0         0         0         0         0         0         0         0
         0         0         0         0         0         0         0         0
         0         0         0         0         0         0         0         0
         0         0         0         0         0         0         0         0
         0         0         0         0         0         0         0         0
         0         0         0         0         0         0         0         0
         0         0         0         0         0         0         0         0
         0         0         0         0         0         0         0         0
         0         0         0         0         0         0         0         0
         0         0         0         0         0         0         0         0
         0         0         0         0         0         0         0         0
         0         0         0         0         0         0         0         0
         0         0         0         0         0         0         0         0
         0         0         0         0         0         0         0         0
         0         0         0         0         0         0         0         0
         0         0         0         0         0         0         0         0
         0         0         0         0         0         0         0         0
         0         0         0         0         0         0         0         0
         0         0         0         0         0         0         0         0
         0         0         0         0         0         0         0         0
         0         0         0         0         0         0         0         0
         0         0         0         0         0         0         0         0
         0         0         0         0         0         0         0         0
         0         0         0         0         0         0         0         0
         0         0         0         0         0         0         0         0
         0         0         0         0         0         0         0         0
         0         0         0         0         0         0         0         0
         0         0         0         0         0         0         0         0
         0         0         0         0         0         0         0         0
         0         0         0         0         0         0         0         0
         0         0         0         0         0         0         0         0
         0         0         0         0         0         0         0         0
         0         0         0         0         0         0         0         0
         0         0         0         0         0         0         0         0
         0         0         0         0         0         0         0         0
         0         0         0         0         0         0         0         0
         0         0         0         0         0         0         0         0
         0         0         0         0         0         0         0         0
         0         0         0         0         0         0         0         0
         0         0         0         0         0         0         0         0
         0         0         0         0         0         0         0         0
         0         0         0         0         0         0         0         0
         0         0         0         0         0         0         0         0
         0         0         0         0         0         0         0         0
         0         0         0         0         0         0         0         0
         0         0         0         0         0         0         0         0
         0         0         0         0         0         0         0         0
         0         0         0         0         0         0         0         0
         0         0         0         0         0         0         0         0
         0         0         0         0         0         0         0         0
         0         0         0         0         0         0         0         0
         0         0         0         0         0         0         0         0
         0         0         0         0         0         0         0         0
         0         0         0         0         0         0         0         0
         0         0         0         0         0         0         0         0
         0         0         0         0         0         0         0         0
         0         0         0         0         0         0         0         0
         0         0         0         0         0         0         0         0
         0         0         0         0         0         0         0         0
         0         0         0         0         0         0         0         0
         0         0         0         0         0         0         0         0
         0         0         0         0         0         0         0         0
         0         0         0         0         0         0         0         0
         0         0         0         0         0         0         0         0
         0         0         0         0         0         0         0         0
         0         0         0         0         0         0         0         0
         0         0         0         0         0         0         0         0
         0         0         0         0         0         0         0         0
         0         0         0         0         0         0         0         0
         0         0         0         0         0         0         0         0
         0         0         0         0         0         0         0         0
         0         0         0         0         0         0         0         0
         0         0         0         0         0         0         0         0
         0         0         0         0         0         0         0         0
         0         0         0         0         0         0         0         0
         0         0         0         0         0         0         0         0
         0         0         0         0         0         0         0         0
         0         0         0         0         0         0         0         0
         0         0         0         0         0         0         0         0
         0         0         0         0         0         0         0         0
         0         0         0         0         0         0         0         0
         0         0         0         0         0         0         0         0
         0         0         0         0         0         0         0         0
         0         0         0         0         0         0         0         0
         0         0         0         0         0         0         0         0
         0         0         0         0         0         0         0         0
         0         0         0         0         0         0         0         0
         0         0         0         0         0         0         0         0
         0         0         0         0         0         0         0         0
         0         0         0         0         0         0         0         0
         0         0         0         0         0         0         0         0
         0         0         0         0         0         0         0         0
         0         0         0         0         0         0         0         0
         0         0         0         0         0         0         0         0
         0         0         0         0         0         0         0         0
         0         0         0         0         0         0         0         0
         0         0         0         0         0         0         0         0
         0         0         0         0         0         0         0         0
         0         0         0         0         0         0         0         0
         0         0         0         0         0         0         0         0
         0         0         0         0         0         0         0         0
         0         0         0         0         0         0         0         0
         0         0         0         0         0         0         0         0
         0         0         0         0         0         0         0         0
         0         0         0         0         0         0         0         0
         0         0         0         0         0         0         0         0
         0         0         0         0         0         0         0         0
         0         0         0         0         0         0         0         0
         0         0         0         0         0         0         0         0
         0         0         0         0         0         0         0         0
         0         0         0         0         0         0         0         0
         0         0         0         0         0         0         0         0
         0         0         0         0         0         0         0         0
         0         0         0         0         0         0         0         0
         0         0         0         0         0         0         0         0
         0         0         0         0         0         0         0         0
         0         0         0         0         0         0         0         0
         0         0         0         0         0         0         0         0
         0         0         0         0         0         0         0         0
         0         0         0         0         0         0         0         0
         0         0         0         0         0         0         0         0
         0         0         0         0         0         0         0         0
         0         0         0         0         0         0         0         0
         0         0         0         0         0         0         0         0
         0         0         0         0         0         0         0         0
         0         0         0         0         0         0         0         0
         0         0         0         0         0         0         0         0
         0         0         0         0         0         0         0         0
         0         0         0         0         0         0         0         0
         0         0         0         0         0         0         0         0
         0         0         0         0         0         0         0         0
         0         0         0         0         0         0         0         0
         0         0         0         0         0         0         0         0
         0         0         0         0         0         0         0         0
         0         0         0         0         0         0         0         0
         0         0         0         0         0         0         0         0
         0         0         0         0         0         0         0         0
         0         0         0         0         0         0         0         0
         0         0         0         0         0         0         0         0
         0         0         0         0         0         0         0         0
         0         0         0         0         0         0         0         0
         0         0         0         0         0         0         0         0
         0         0         0         0         0         0         0         0
         0         0         0         0         0         0         0         0
         0         0         0         0         0         0         0         0
         0         0         0         0         0         0         0         0
         0         0         0         0         0         0         0         0
         0         0         0         0         0         0         0         0
         0         0         0         0         0         0         0         0
         0         0         0         0         0         0         0         0
         0         0         0         0         0         0         0         0
         0         0         0         0         0         0         0         0
         0         0         0         0         0         0         0         0
         0         0         0         0         0         0         0         0
         0         0         0         0         0         0         0         0
         0         0         0         0         0         0         0         0
         0         0         0         0         0         0         0         0
         0         0         0         0         0         0         0         0
         0         0         0         0         0         0         0         0
         0         0         0         0         0         0         0         0
         0         0         0         0         0         0         0         0
         0         0         0         0         0         0         0         0
         0         0         0         0         0         0         0         0
         0         0         0         0         0         0         0         0
         0         0         0         0         0         0         0         0
         0         0         0         0         0         0         0         0
         0         0         0         0         0         0         0         0
         0         0         0         0         0         0         0         0
         0         0         0         0         0         0         0         0
         0         0         0         0         0         0         0         0
         0         0         0         0         0         0         0         0
         0         0         0         0         0         0         0         0
         0         0         0         0         0         0         0         0
         0         0         0         0         0         0         0         0
         0         0         0         0         0         0         0         0
         0         0         0         0         0         0         0         0
         0         0         0         0         0         0         0         0
         0         0         0         0         0         0         0         0
         0         0         0         0         0         0         0         0
         0         0         0         0         0         0         0         0
         0         0         0         0         0         0         0         0
         0         0         0         0         0         0         0         0
         0         0         0         0         0         0         0         0
         0         0         0         0         0         0         0         0
         0         0         0         0         0         0         0         0
         0         0         0         0         0         0         0         0
         0         0         0         0         0         0         0         0
         0         0         0         0         0         0         0         0
         0         0         0         0         0         0         0         0
         0         0         0         0         0         0         0         0
         0         0         0         0         0         0         0         0
         0         0         0         0         0         0         0         0
         0         0         0         0         0         0         0         0
         0         0         0         0         0         0         0         0
         0         0         0         0         0         0         0         0
         0         0         0         0         0         0         0         0
         0         0         0         0         0         0         0         0
         0         0         0         0         0         0         0         0
         0         0         0         0         0         0         0         0
         0         0         0         0         0         0         0         0
         0         0         0         0         0         0         0         0
         0         0         0         0         0         0         0         0
         0         0         0         0         0         0         0         0
         0         0         0         0         0         0         0         0
         0         0         0         0         0         0         0         0
         0         0         0         0         0         0         0         0
         0         0         0         0         0         0         0         0
         0         0         0         0         0         0         0         0
         0         0         0         0         0         0         0         0
         0         0         0         0         0         0         0         0
         0         0         0         0         0         0         0         0
         0         0         0         0         0         0         0         0
         0         0         0         0         0         0         0         0
         0         0         0         0         0         0         0         0
         0         0         0         0         0         0         0         0
         0         0         0         0         0         0         0         0
         0         0         0         0         0         0         0         0
         0         0         0         0         0         0         0         0
         0         0         0         0         0         0         0         0
         0         0         0         0         0         0         0         0
         0         0         0         0         0         0         0         0
         0         0         0         0         0         0         0         0
         0         0         0         0         0         0         0         0
         0         0         0         0         0         0         0         0
         0         0         0         0         0         0         0         0
         0         0         0         0         0         0         0         0
         0         0         0         0         0         0         0         0
         0         0         0         0         0         0         0         0
         0         0         0         0         0         0         0         0
         0         0         0         0         0         0         0         0
         0         0         0         0         0         0         0         0
         0         0         0         0         0         0         0         0
         0         0         0         0         0         0         0         0
         0         0         0         0         0         0         0         0
         0         0         0         0         0         0         0         0
         0         0         0         0         0         0         0         0
         0         0         0         0         0         0         0         0
         0         0         0         0         0         0         0         0
         0         0         0         0         0         0         0         0
         0         0         0         0         0         0         0         0
         0         0         0         0         0         0         0         0
         0         0         0         0         0         0         0         0
         0         0         0         0         0         0         0         0
         0         0         0         0         0         0         0         0
         0         0         0         0         0         0         0         0
         0         0         0         0         0         0         0         0
         0         0         0         0         0         0         0         0
         0         0         0         0         0         0         0         0
         0         0         0         0         0         0         0         0
         0         0         0         0         0         0         0         0
         0         0         0         0         0         0         0         0
         0         0         0         0         0         0         0         0
         0         0         0         0         0         0         0         0
         0         0         0         0         0         0         0         0
         0         0         0         0         0         0         0         0
         0         0         0         0         0         0         0         0
         0         0         0         0         0         0         0         0
         0         0         0         0         0         0         0         0
         0         0         0         0         0         0         0         0
         0         0         0         0         0         0         0         0
         0         0         0         0         0         0         0         0
         0         0         0         0         0         0         0         0
         0         0         0         0         0         0         0         0
         0         0         0         0         0         0         0         0
         0         0         0         0         0         0         0         0
         0         0         0         0         0         0         0         0
         0         0         0         0         0         0         0         0
         0         0         0         0         0         0         0         0
         0         0         0         0         0         0         0         0
         0         0         0         0         0         0         0         0
         0         0         0         0         0         0         0         0
         0         0         0         0         0         0         0         0
         0         0         0         0         0         0         0         0
         0         0         0         0         0         0         0         0
         0         0         0         0         0         0         0         0
         0         0         0         0         0         0         0         0
         0         0         0         0         0         0         0         0
         0         0         0         0         0         0         0         0
         0         0         0         0         0         0         0         0
         0         0         0         0         0         0         0         0
         0         0         0         0         0         0         0         0
         0         0         0         0         0         0         0         0
         0         0         0         0         0         0         0         0
         0         0         0         0         0         0         0         0
         0         0         0         0         0         0         0         0
         0         0         0         0         0         0         0         0
         0         0         0         0         0         0         0         0
         0         0         0         0         0         0         0         0
         0         0         0         0         0         0         0         0
         0         0         0         0         0         0         0         0
         0         0         0         0         0         0         0         0
         0         0         0         0         0         0         0         0
         0         0         0         0         0         0         0         0
         0         0         0         0         0         0         0         0
         0         0         0         0         0         0         0         0
         0         0         0         0         0         0         0         0
         0         0         0         0         0         0         0         0
         0         0         0         0         0         0         0         0
         0         0         0         0         0         0         0         0
         0         0         0         0         0         0         0         0
         0         0         0         0         0         0         0         0
         0         0         0         0         0         0         0         0
         0         0         0         0         0         0         0         0
         0         0         0         0         0         0         0         0
         0         0         0         0         0         0         0         0
         0         0         0         0         0         0         0         0
         0         0         0         0         0         0         0         0
         0         0         0         0         0         0         0         0
         0         0         0         0         0         0         0         0
         0         0         0         0         0         0         0         0
         0         0         0         0         0         0         0         0
         0         0         0         0         0         0         0         0
         0         0         0         0         0         0         0         0
         0         0         0         0         0         0         0         0
         0         0         0         0         0         0         0         0
         0         0         0         0         0         0         0         0
         0         0         0         0         0         0         0         0
         0         0         0         0         0         0         0         0
         0         0         0         0         0         0         0         0
         0         0         0         0         0         0         0         0
         0         0         0         0         0         0         0         0
         0         0         0         0         0         0         0         0
         0         0         0         0         0         0         0         0
         0         0         0         0         0         0         0         0
         0         0         0         0         0         0         0         0
         0         0         0         0         0         0         0         0
         0         0         0         0         0         0         0         0
         0         0         0         0         0         0         0         0
         0         0         0         0         0         0         0         0
         0         0         0         0         0         0         0         0
         0         0         0         0         0         0         0         0
         0         0         0         0         0         0         0         0
         0         0         0         0         0         0         0         0
         0         0         0         0         0         0         0         0
         0         0         0         0         0         0         0         0
         0         0         0         0         0         0         0         0
         0         0         0         0         0         0         0         0
         0         0         0         0         0         0         0         0
         0         0         0         0         0         0         0         0
         0         0         0         0         0         0         0         0
         0         0         0         0         0         0         0         0
         0         0         0         0         0         0         0         0
         0         0         0         0         0         0         0         0
         0         0         0         0         0         0         0         0
         0         0         0         0         0         0         0         0
         0         0         0         0         0         0         0         0
         0         0         0         0         0         0         0         0
         0         0         0         0         0         0         0         0
         0         0         0         0         0         0         0         0
         0         0         0         0         0         0         0         0
         0         0         0         0         0         0         0         0
         0         0         0         0         0         0         0         0
         0         0         0         0         0         0         0         0
         0         0         0         0         0         0         0         0
         0         0         0         0         0         0         0         0
         0         0         0         0         0         0         0         0
         0         0         0         0         0         0         0         0
         0         0         0         0         0         0         0         0
         0         0         0         0         0         0         0         0
         0         0         0         0         0         0         0         0
         0         0         0         0         0         0         0         0
         0         0         0         0         0         0         0         0
         0         0         0         0         0         0         0         0
         0         0         0         0         0         0         0         0
         0         0         0         0         0         0         0         0
         0         0         0         0         0         0         0         0
         0         0         0         0         0         0         0         0
         0         0         0         0         0         0         0         0
         0         0         0         0         0         0         0         0
         0         0         0         0         0         0         0         0
         0         0         0         0         0         0         0         0
         0         0         0         0         0         0         0         0
         0         0         0         0         0         0         0         0
         0         0         0         0         0         0         0         0
         0         0         0         0         0         0         0         0
         0         0         0         0         0         0         0         0
         0         0         0         0         0         0         0         0
         0         0         0         0         0         0         0         0
         0         0         0         0         0         0         0         0
         0         0         0         0         0         0         0         0
         0         0         0         0         0         0         0         0
         0         0         0         0         0         0         0         0
         0         0         0         0         0         0         0         0
         0         0         0         0         0         0         0         0
         0         0         0         0         0         0         0         0
         0         0         0         0         0         0         0         0
         0         0         0         0         0         0         0         0
         0         0         0         0         0         0         0         0
         0         0         0         0         0         0         0         0
         0         0         0         0         0         0         0         0
         0         0         0         0         0         0         0         0
         0         0         0         0         0         0         0         0
         0         0         0         0         0         0         0         0
         0         0         0         0         0         0         0         0
         0         0         0         0         0         0         0         0
         0         0         0         0         0         0         0         0
         0         0         0         0         0         0         0         0
         0         0         0         0         0         0         0         0
         0         0         0         0         0         0         0         0
         0         0         0         0         0         0         0         0
         0         0         0         0         0         0         0         0
         0         0         0         0         0         0         0         0
         0         0         0         0         0         0         0         0
         0         0         0         0         0         0         0         0
         0         0         0         0         0         0         0         0
         0         0         0         0         0         0         0         0
         0         0         0         0         0         0         0         0
         0         0         0         0         0         0         0         0
         0         0         0         0         0         0         0         0
         0         0         0         0         0         0         0         0
         0         0         0         0         0         0         0         0
         0         0         0         0         0         0         0         0
         0         0         0         0         0         0         0         0
         0         0         0         0         0         0         0         0
         0         0         0         0         0         0         0         0
         0         0         0         0         0         0         0         0
         0         0         0         0         0         0         0         0
         0         0         0         0         0         0         0         0
         0         0         0         0         0         0         0         0
         0         0         0         0         0         0         0         0
         0         0         0         0         0         0         0         0
         0         0         0         0         0         0         0         0
         0         0         0         0         0         0         0         0
         0         0         0         0         0         0         0         0
         0         0         0         0         0         0         0         0
         0         0         0         0         0         0         0         0
         0         0         0         0         0         0         0         0
         0         0         0         0         0         0         0         0
         0         0         0         0         0         0         0         0
         0         0         0         0         0         0         0         0
         0         0         0         0         0         0         0         0
         0         0         0         0         0         0         0         0
         0         0         0         0         0         0         0         0
         0         0         0         0         0         0         0         0
         0         0         0         0         0         0         0         0
         0         0         0         0         0         0         0         0
         0         0         0         0         0         0         0         0
         0         0         0         0         0         0         0         0
         0         0         0         0         0         0         0         0
         0         0         0         0         0         0         0         0
         0         0         0         0         0         0         0         0
         0         0         0         0         0         0         0         0
         0         0         0         0         0         0         0         0
         0         0         0         0         0         0         0         0
         0         0         0         0         0         0         0         0
         0         0         0         0         0         0         0         0
         0         0         0         0         0         0         0         0
         0         0         0         0         0         0         0         0
         0         0         0         0         0         0         0         0
         0         0         0         0         0         0         0         0
         0         0         0         0         0         0         0         0
         0         0         0         0         0         0         0         0
         0         0         0         0         0         0         0         0
         0         0         0         0         0         0         0         0
         0         0         0         0         0         0         0         0
         0         0         0         0         0         0         0         0
         0         0         0         0         0         0         0         0
         0         0         0         0         0         0         0         0
         0         0         0         0         0         0         0         0
         0         0         0         0         0         0         0         0
         0         0         0         0         0         0         0         0
         0         0         0         0         0         0         0         0
         0         0         0         0         0         0         0         0
         0         0         0         0         0         0         0         0
         0         0         0         0         0         0         0         0
         0         0         0         0         0         0         0         0
         0         0         0         0         0         0         0         0
         0         0         0         0         0         0         0         0
         0         0         0         0         0         0         0         0
         0         0         0         0         0         0         0         0
         0         0         0         0         0         0         0         0
         0         0         0         0         0         0         0         0
         0         0         0         0         0         0         0         0
         0         0         0         0         0         0         0         0
         0         0         0         0         0         0         0         0
         0         0         0         0         0         0         0         0
         0         0         0         0         0         0         0         0
         0         0         0         0         0         0         0         0
         0         0         0         0         0         0         0         0
         0         0         0         0         0         0         0         0
         0         0         0         0         0         0         0         0
         0         0         0         0         0         0         0         0
         0         0         0         0         0         0         0         0
         0         0         0         0         0         0         0         0
         0         0         0         0         0         0         0         0
         0         0         0         0         0         0         0         0
         0         0         0         0         0         0         0         0
         0         0         0         0         0         0         0         0
         0         0         0         0         0         0         0         0
         0         0         0         0         0         0         0         0
         0         0         0         0         0         0         0         0
         0         0         0         0         0         0         0         0
         0         0         0         0         0         0         0         0
         0         0         0         0         0         0         0         0
         0         0         0         0         0         0         0         0
         0         0         0         0         0         0         0         0
         0         0         0         0         0         0         0         0
         0         0         0         0         0         0         0         0
         0         0         0         0         0         0         0         0
         0         0         0         0         0         0         0         0
         0         0         0         0         0         0         0         0
         0         0         0         0         0         0         0         0
         0         0         0         0         0         0         0         0
         0         0         0         0         0         0         0         0
         0         0         0         0         0         0         0         0
         0         0         0         0         0         0         0         0
         0         0         0         0         0         0         0         0
         0         0         0         0         0         0         0         0
         0         0         0         0         0         0         0         0
         0         0         0         0         0         0         0         0
         0         0         0         0         0         0         0         0
         0         0         0         0         0         0         0         0
         0         0         0         0         0         0         0         0
         0         0         0         0         0         0         0         0
         0         0         0         0         0         0         0         0
         0         0         0         0         0         0         0         0
         0         0         0         0         0         0         0         0
         0         0         0         0         0         0         0         0
         0         0         0         0         0         0         0         0
         0         0         0         0         0         0         0         0
         0         0         0         0         0         0         0         0
         0         0         0         0         0         0         0         0
         0         0         0         0         0         0         0         0
         0         0         0         0         0         0         0         0
         0         0         0         0         0         0         0         0
         0         0         0         0         0         0         0         0
         0         0         0         0         0         0         0         0
         0         0         0         0         0         0         0         0
         0         0         0         0         0         0         0         0
         0         0         0         0         0         0         0         0
         0         0         0         0         0         0         0         0
         0         0         0         0         0         0         0         0
         0         0         0         0         0         0         0         0
         0         0         0         0         0         0         0         0
         0         0         0         0         0         0         0         0
         0         0         0         0         0         0         0         0
         0         0         0         0         0         0         0         0
         0         0         0         0         0         0         0         0
         0         0         0         0         0         0         0         0
         0         0         0         0         0         0         0         0
         0         0         0         0         0         0         0         0
         0         0         0         0         0         0         0         0
         0         0         0         0         0         0         0         0
         0         0         0         0         0         0         0         0
         0         0         0         0         0         0         0         0
         0         0         0         0         0         0         0         0
         0         0         0         0         0         0         0         0
         0         0         0         0         0         0         0         0
         0         0         0         0         0         0         0         0
         0         0         0         0         0         0         0         0
         0         0         0         0         0         0         0         0
         0         0         0         0         0         0         0         0
         0         0         0         0         0         0         0         0
         0         0         0         0         0         0         0         0
         0         0         0         0         0         0         0         0
         0         0         0         0         0         0         0         0
         0         0         0         0         0         0         0         0
         0         0         0         0         0         0         0         0
         0         0         0         0         0         0         0         0
         0         0         0         0         0         0         0         0
         0         0         0         0         0         0         0         0
         0         0         0         0         0         0         0         0
         0         0         0         0         0         0         0         0
         0         0         0         0         0         0         0         0
         0         0         0         0         0         0         0         0
         0         0         0         0         0         0         0         0
         0         0         0         0         0         0         0         0
         0         0         0         0         0         0         0         0
         0         0         0         0         0         0         0         0
         0         0         0         0         0         0         0         0
         0         0         0         0         0         0         0         0
         0         0         0         0         0         0         0         0
         0         0         0         0         0         0         0         0
         0         0         0         0         0         0         0         0
         0         0         0         0         0         0         0         0
         0         0         0         0         0         0         0         0
         0         0         0         0         0         0         0         0
         0         0         0         0         0         0         0         0
         0         0         0         0         0         0         0         0
         0         0         0         0         0         0         0         0
         0         0         0         0         0         0         0         0
         0         0         0         0         0         0         0         0
         0         0         0         0         0         0         0         0
         0         0         0         0         0         0         0         0
         0         0         0         0         0         0         0         0
         0         0         0         0         0         0         0         0
         0         0         0         0         0         0         0         0
         0         0         0         0         0         0         0         0
         0         0         0         0         0         0         0         0
         0         0         0         0         0         0         0         0
         0         0         0         0         0         0         0         0
         0         0         0         0         0         0         0         0
         0         0         0         0         0         0         0         0
         0         0         0         0         0         0         0         0
         0         0         0         0         0         0         0         0
         0         0         0         0         0         0         0         0
         0         0         0         0         0         0         0         0
         0         0         0         0         0         0         0         0
         0         0         0         0         0         0         0         0
         0         0         0         0         0         0         0         0
         0         0         0         0         0         0         0         0
         0         0         0         0         0         0         0         0
         0         0         0         0         0         0         0         0
         0         0         0         0         0         0         0         0
         0         0         0         0         0         0         0         0
         0         0         0         0         0         0         0         0
         0         0         0         0         0         0         0         0
         0         0         0         0         0         0         0         0
         0         0         0         0         0         0         0         0
         0         0         0         0         0         0         0         0
         0         0         0         0         0         0         0         0
         0         0         0         0         0         0         0         0
         0         0         0         0         0         0         0         0
         0         0         0         0         0         0         0         0
         0         0         0         0         0         0         0         0
         0         0         0         0         0         0         0         0
         0         0         0         0         0         0         0         0
         0         0         0         0         0         0         0         0
         0         0         0         0         0         0         0         0
         0         0         0         0         0         0         0         0
         0         0         0         0         0         0         0         0
         0         0         0         0         0         0         0         0
         0         0         0         0         0         0         0         0
         0         0         0         0         0         0         0         0
         0         0         0         0         0         0         0         0
         0         0         0         0         0         0         0         0
         0         0         0         0         0         0         0         0
         0         0         0         0         0         0         0         0
         0         0         0         0         0         0         0         0
         0         0         0         0         0         0         0         0
         0         0         0         0         0         0         0         0
         0         0         0         0         0         0         0         0
         0         0         0         0         0         0         0         0
         0         0         0         0         0         0         0         0
         0         0         0         0         0         0         0         0
         0         0         0         0         0         0         0         0
         0         0         0         0         0         0         0         0
         0         0         0         0         0         0         0         0
         0         0         0         0         0         0         0         0
         0         0         0         0         0         0         0         0
         0         0         0         0         0         0         0         0
         0         0         0         0         0         0         0         0
         0         0         0         0         0         0         0         0
         0         0         0         0         0         0         0         0
         0         0         0         0         0         0         0         0
         0         0         0         0         0         0         0         0
         0         0         0         0         0         0         0         0
         0         0         0         0         0         0         0         0
         0         0         0         0         0         0         0         0
         0         0         0         0         0         0         0         0
         0         0         0         0         0         0         0         0
         0         0         0         0         0         0         0         0
         0         0         0         0         0         0         0         0
         0         0         0         0         0         0         0         0
         0         0         0         0         0         0         0         0
         0         0         0         0         0         0         0         0
         0         0         0         0         0         0         0         0
         0         0         0         0         0         0         0         0
         0         0         0         0         0         0         0         0
         0         0         0         0         0         0         0         0
         0         0         0         0         0         0         0         0
         0         0         0         0         0         0         0         0
         0         0         0         0         0         0         0         0
         0         0         0         0         0         0         0         0
         0         0         0         0         0         0         0         0
         0         0         0         0         0         0         0         0
         0         0         0         0         0         0         0         0
         0         0         0         0         0         0         0         0
         0         0         0         0         0         0         0         0
         0         0         0         0         0         0         0         0
         0         0         0         0         0         0         0         0
         0         0         0         0         0         0         0         0
         0         0         0         0         0         0         0         0
         0         0         0         0         0         0         0         0
         0         0         0         0         0         0         0         0
         0         0         0         0         0         0         0         0
         0         0         0         0         0         0         0         0
         0         0         0         0         0         0         0         0
         0         0         0         0         0         0         0         0
         0         0         0         0         0         0         0         0
         0         0         0         0         0         0         0         0
         0         0         0         0         0         0         0         0
         0         0         0         0         0         0         0         0
         0         0         0         0         0         0         0         0
         0         0         0         0         0         0         0         0
         0         0         0         0         0         0         0         0
         0         0         0         0         0         0         0         0
         0         0         0         0         0         0         0         0
         0         0         0         0         0         0         0         0
         0         0         0         0         0         0         0         0
         0         0         0         0         0         0         0         0
         0         0         0         0         0         0         0         0
         0         0         0         0         0         0         0         0
         0         0         0         0         0         0         0         0
         0         0         0         0         0         0         0         0
         0         0         0         0         0         0         0         0
         0         0         0         0         0         0         0         0
         0         0         0         0         0         0         0         0
         0         0         0         0         0         0         0         0
         0         0         0         0         0         0         0         0
         0         0         0         0         0         0         0         0
         0         0         0         0         0         0         0         0
         0         0         0         0         0         0         0         0
         0         0         0         0         0         0         0         0
         0         0         0         0         0         0         0         0
         0         0         0         0         0         0         0         0
         0         0         0         0         0         0         0         0
         0         0         0         0         0         0         0         0
         0         0         0         0         0         0         0         0
         0         0         0         0         0         0         0         0
         0         0         0         0         0         0         0         0
         0         0         0         0         0         0         0         0
         0         0         0         0         0         0         0         0
         0         0         0         0         0         0         0         0
         0         0         0         0         0         0         0         0
         0         0         0         0         0         0         0         0
         0         0         0         0         0         0         0         0
         0         0         0         0         0         0         0         0
         0         0         0         0         0         0         0         0
         0         0         0         0         0         0         0         0
         0         0         0         0         0         0         0         0
         0         0         0         0         0         0         0         0
         0         0         0         0         0         0         0         0
         0         0         0         0         0         0         0         0
         0         0         0         0         0         0         0         0
         0         0         0         0         0         0         0         0
         0         0         0         0         0         0         0         0
         0         0         0         0         0         0         0         0
         0         0         0         0         0         0         0         0
         0         0         0         0         0         0         0         0
         0         0         0         0         0         0         0         0
         0         0         0         0         0         0         0         0
         0         0         0         0         0         0         0         0
         0         0         0         0         0         0         0         0
         0         0         0         0         0         0         0         0
         0         0         0         0         0         0         0         0
         0         0         0         0         0         0         0         0
         0         0         0         0         0         0         0         0
         0         0         0         0         0         0         0         0
         0         0         0         0         0         0         0         0
         0         0         0         0         0         0         0         0
         0         0         0         0         0         0         0         0
         0         0         0         0         0         0         0         0
         0         0         0         0         0         0         0         0
         0         0         0         0         0         0         0         0
         0         0         0         0         0         0         0         0
         0         0         0         0         0         0         0         0
         0         0         0         0         0         0         0         0
         0         0         0         0         0         0         0         0
         0         0         0         0         0         0         0         0
         0         0         0         0         0         0         0         0
         0         0         0         0         0         0         0         0
         0         0         0         0         0         0         0         0
         0         0         0         0         0         0         0         0
         0         0         0         0         0         0         0         0
         0         0         0         0         0         0         0         0
         0         0         0         0         0         0         0         0
         0         0         0         0         0         0         0         0
         0         0         0         0         0         0         0         0
         0         0         0         0         0         0         0         0
         0         0         0         0         0         0         0         0
         0         0         0         0         0         0         0         0
         0         0         0         0         0         0         0         0
         0         0         0         0         0         0         0         0
         0         0         0         0         0         0         0         0
         0         0         0         0         0         0         0         0
         0         0         0         0         0         0         0         0
         0         0         0         0         0         0         0         0
         0         0         0         0         0         0         0         0
         0         0         0         0         0         0         0         0
         0         0         0         0         0         0         0         0
         0         0         0         0         0         0         0         0
         0         0         0         0         0         0         0         0
         0         0         0         0         0         0         0         0
         0         0         0         0         0         0         0         0
         0         0         0         0         0         0         0         0
         0         0         0         0         0         0         0         0
         0         0         0         0         0         0         0         0
         0         0         0         0         0         0         0         0
         0         0         0         0         0         0         0         0
         0         0         0         0         0         0         0         0
         0         0         0         0         0         0         0         0
         0         0         0         0         0         0         0         0
         0         0         0         0         0         0         0         0
         0         0         0         0         0         0         0         0
         0         0         0         0         0         0         0         0
         0         0         0         0         0         0         0         0
         0         0         0         0         0         0         0         0
         0         0         0         0         0         0         0         0
         0         0         0         0         0         0         0         0
         0         0         0         0         0         0         0         0
         0         0         0         0         0         0         0         0
         0         0         0         0         0         0         0         0
         0         0         0         0         0         0         0         0
         0         0         0         0         0         0         0         0
         0         0         0         0         0         0         0         0
         0         0         0         0         0         0         0         0
         0         0         0         0         0         0         0         0
         0         0         0         0         0         0         0         0
         0         0         0         0         0         0         0         0
         0         0         0         0         0         0         0         0
         0         0         0         0         0         0         0         0
         0         0         0         0         0         0         0         0
         0         0         0         0         0         0         0         0
         0         0         0         0         0         0         0         0
         0         0         0         0         0         0         0         0
         0         0         0         0         0         0         0         0
         0         0         0         0         0         0         0         0
         0         0         0         0         0         0         0         0
         0         0         0         0         0         0         0         0
         0         0         0         0         0         0         0         0
         0         0         0         0         0         0         0         0
         0         0         0         0         0         0         0         0
         0         0         0         0         0         0         0         0
         0         0         0         0         0         0         0         0
         0         0         0         0         0         0         0         0
         0         0         0         0         0         0         0         0
         0         0         0         0         0         0         0         0
         0         0         0         0         0         0         0         0
         0         0         0         0         0         0         0         0
         0         0         0         0         0         0         0         0
         0         0         0         0         0         0         0         0
         0         0         0         0         0         0         0         0
         0         0         0         0         0         0         0         0
         0         0         0         0         0         0         0         0
         0         0         0         0         0         0         0         0
         0         0         0         0         0         0         0         0
         0         0         0         0         0         0         0         0
         0         0         0         0         0         0         0         0
         0         0         0         0         0         0         0         0
         0         0         0         0         0         0         0         0
         0         0         0         0         0         0         0         0
         0         0         0         0         0         0         0         0
         0         0         0         0         0         0         0         0
         0         0         0         0         0         0         0         0
         0         0         0         0         0         0         0         0
         0         0         0         0         0         0         0         0
         0         0         0         0         0         0         0         0
         0         0         0         0         0         0         0         0
         0         0         0         0         0         0         0         0
         0         0         0         0         0         0         0         0
         0         0         0         0         0         0         0         0
         0         0         0         0         0         0         0         0
         0         0         0         0         0         0         0         0
         0         0         0         0         0         0         0         0
         0         0         0         0         0         0         0         0
         0         0         0         0         0         0         0         0
         0         0         0         0         0         0         0         0
         0         0         0         0         0         0         0         0
         0         0         0         0         0         0         0         0
         0         0         0         0         0         0         0         0
         0         0         0         0         0         0         0         0
         0         0         0         0         0         0         0         0
         0         0         0         0         0         0         0         0
         0         0         0         0         0         0         0         0
         0         0         0         0         0         0         0         0
         0         0         0         0         0         0         0         0
         0         0         0         0         0         0         0         0
         0         0         0         0         0         0         0         0
         0         0         0         0         0         0         0         0
         0         0         0         0         0         0         0         0
         0         0         0         0         0         0         0         0
         0         0         0         0         0         0         0         0
         0         0         0         0         0         0         0         0
         0         0         0         0         0         0         0         0
         0         0         0         0         0         0         0         0
         0         0         0         0         0         0         0         0
         0         0         0         0         0         0         0         0
         0         0         0         0         0         0         0         0
         0         0         0         0         0         0         0         0
         0         0         0         0         0         0         0         0
         0         0         0         0         0         0         0         0
         0         0         0         0         0         0         0         0
         0         0         0         0         0         0         0         0
         0         0         0         0         0         0         0         0
         0         0         0         0         0         0         0         0
         0         0         0         0         0         0         0         0
         0         0         0         0         0         0         0         0
         0         0         0         0         0         0         0         0
         0         0         0         0         0         0         0         0
         0         0         0         0         0         0         0         0
         0         0         0         0         0         0         0         0
         0         0         0         0         0         0         0         0
         0         0         0         0         0         0         0         0
         0         0         0         0         0         0         0         0
         0         0         0         0         0         0         0         0
         0         0         0         0         0         0         0         0
         0         0         0         0         0         0         0         0
         0         0         0         0         0         0         0         0
         0         0         0         0         0         0         0         0
         0         0         0         0         0         0         0         0
         0         0         0         0         0         0         0         0
         0         0         0         0         0         0         0         0
         0         0         0         0         0         0         0         0
         0         0         0         0         0         0         0         0
         0         0         0         0         0         0         0         0
         0         0         0         0         0         0         0         0
         0         0         0         0         0         0         0         0
         0         0         0         0         0         0         0         0
         0         0         0         0         0         0         0         0
         0         0         0         0         0         0         0         0
         0         0         0         0         0         0         0         0
         0         0         0         0         0         0         0         0
         0         0         0         0         0         0         0         0
         0         0         0         0         0         0         0         0
         0         0         0         0         0         0         0         0
         0         0         0         0         0         0         0         0
         0         0         0         0         0         0         0         0
         0         0         0         0         0         0         0         0
         0         0         0         0         0         0         0         0
         0         0         0         0         0         0         0         0
         0         0         0         0         0         0         0         0
         0         0         0         0         0         0         0         0
         0         0         0         0         0         0         0         0
         0         0         0         0         0         0         0         0
         0         0         0         0         0         0         0         0
         0         0         0         0         0         0         0         0
         0         0         0         0         0         0         0         0
         0         0         0         0         0         0         0         0
         0         0         0         0         0         0         0         0
         0         0         0         0         0         0         0         0
         0         0         0         0         0         0         0         0
         0         0         0         0         0         0         0         0
         0         0         0         0         0         0         0         0
         0         0         0         0         0         0         0         0
         0         0         0         0         0         0         0         0
         0         0         0         0         0         0         0         0
         0         0         0         0         0         0         0         0
         0         0         0         0         0         0         0         0
         0         0         0         0         0         0         0         0
         0         0         0         0         0         0         0         0
         0         0         0         0         0         0         0         0
         0         0         0         0         0         0         0         0
         0         0         0         0         0         0         0         0
         0         0         0         0         0         0         0         0
         0         0         0         0         0         0         0         0
         0         0         0         0         0         0         0         0
         0         0         0         0         0         0         0         0
         0         0         0         0         0         0         0         0
         0         0         0         0         0         0         0         0
         0         0         0         0         0         0         0         0
         0         0         0         0         0         0         0         0
         0         0         0         0         0         0         0         0
         0         0         0         0         0         0         0         0
         0         0         0         0         0         0         0         0
         0         0         0         0         0         0         0         0
         0         0         0         0         0         0         0         0
         0         0         0         0         0         0         0         0
         0         0         0         0         0         0         0         0
         0         0         0         0         0         0         0         0
         0         0         0         0         0         0         0         0
         0         0         0         0         0         0         0         0
         0         0         0         0         0         0         0         0
         0         0         0         0         0         0         0         0
         0         0         0         0         0         0         0         0
         0         0         0         0         0         0         0         0
         0         0         0         0         0         0         0         0
         0         0         0         0         0         0         0         0
         0         0         0         0         0         0         0         0
         0         0         0         0         0         0         0         0
         0         0         0         0         0         0         0         0
         0         0         0         0         0         0         0         0
         0         0         0         0         0         0         0         0
         0         0         0         0         0         0         0         0
         0         0         0         0         0         0         0         0
         0         0         0         0         0         0         0         0
         0         0         0         0         0         0         0         0
         0         0         0         0         0         0         0         0
         0         0         0         0         0         0         0         0
         0         0         0         0         0         0         0         0
         0         0         0         0         0         0         0         0
         0         0         0         0         0         0         0         0
         0         0         0         0         0         0         0         0
         0         0         0         0         0         0         0         0
         0         0         0         0         0         0         0         0
         0         0         0         0         0         0         0         0
         0         0         0         0         0         0         0         0
         0         0         0         0         0         0         0         0
         0         0         0         0         0         0         0         0
         0         0         0         0         0         0         0         0
         0         0         0         0         0         0         0         0
         0         0         0         0         0         0         0         0
         0         0         0         0         0         0         0         0
         0         0         0         0         0         0         0         0
         0         0         0         0         0         0         0         0
         0         0         0         0         0         0         0         0
         0         0         0         0         0         0         0         0
         0         0         0         0         0         0         0         0
         0         0         0         0         0         0         0         0
         0         0         0         0         0         0         0         0
         0         0         0         0         0         0         0         0
         0         0         0         0         0         0         0         0
         0         0         0         0         0         0         0         0
         0         0         0         0         0         0         0         0
         0         0         0         0         0         0         0         0
         0         0         0         0         0         0         0         0
         0         0         0         0         0         0         0         0
         0         0         0         0         0         0         0         0
         0         0         0         0         0         0         0         0
         0         0         0         0         0         0         0         0
         0         0         0         0         0         0         0         0
         0         0         0         0         0         0         0         0
         0         0         0         0         0         0         0         0
         0         0         0         0         0         0         0         0
         0         0         0         0         0         0         0         0
         0         0         0         0         0         0         0         0
         0         0         0         0         0         0         0         0
         0         0         0         0         0         0         0         0
         0         0         0         0         0         0         0         0
         0         0         0         0         0         0         0         0
         0         0         0         0         0         0         0         0
         0         0         0         0         0         0         0         0
         0         0         0         0         0         0         0         0
         0         0         0         0         0         0         0         0
         0         0         0         0         0         0         0         0
         0         0         0         0         0         0         0         0
         0         0         0         0         0         0         0         0
         0         0         0         0         0         0         0         0
         0         0         0         0         0         0         0         0
         0         0         0         0         0         0         0         0
         0         0         0         0         0         0         0         0
         0         0         0         0         0         0         0         0
         0         0         0         0         0         0         0         0
         0         0         0         0         0         0         0         0
         0         0         0         0         0         0         0         0
         0         0         0         0         0         0         0         0
         0         0         0         0         0         0         0         0
         0         0         0         0         0         0         0         0
         0         0         0         0         0         0         0         0
         0         0         0         0         0         0         0         0
         0         0         0         0         0         0         0         0
         0         0         0         0         0         0         0         0
         0         0         0         0         0         0         0         0
         0         0         0         0         0         0         0         0
         0         0         0         0         0         0         0         0
         0         0         0         0         0         0         0         0
         0         0         0         0         0         0         0         0
         0         0         0         0         0         0         0         0
         0         0         0         0         0         0         0         0
         0         0         0         0         0         0         0         0
         0         0         0         0         0         0         0         0
         0         0         0         0         0         0         0         0
         0         0         0         0         0         0         0         0
         0         0         0         0         0         0         0         0
         0         0         0         0         0         0         0         0
         0         0         0         0         0         0         0         0
         0         0         0         0         0         0         0         0
         0         0         0         0         0         0         0         0
         0         0         0         0         0         0         0         0
         0         0         0         0         0         0         0         0
         0         0         0         0         0         0         0         0
         0         0         0         0         0         0         0         0
         0         0         0         0         0         0         0         0
         0         0         0         0         0         0         0         0
         0         0         0         0         0         0         0         0
         0         0         0         0         0         0         0         0
         0         0         0         0         0         0         0         0
         0         0         0         0         0         0         0         0
         0         0         0         0         0         0         0         0
         0         0         0         0         0         0         0         0
         0         0         0         0         0         0         0         0
         0         0         0         0         0         0         0         0
         0         0         0         0         0         0         0         0
         0         0         0         0         0         0         0         0
         0         0         0         0         0         0         0         0
         0         0         0         0         0         0         0         0
         0         0         0         0         0         0         0         0
         0         0         0         0         0         0         0         0
         0         0         0         0         0         0         0         0
         0         0         0         0         0         0         0         0
         0         0         0         0         0         0         0         0
         0         0         0         0         0         0         0         0
         0         0         0         0         0         0         0         0
         0         0         0         0         0         0         0         0
         0         0         0         0         0         0         0         0
         0         0         0         0         0         0         0         0
         0         0         0         0         0         0         0         0
         0         0         0         0         0         0         0         0
         0         0         0         0         0         0         0         0
         0         0         0         0         0         0         0         0
         0         0         0         0         0         0         0         0
         0         0         0         0         0         0         0         0
         0         0         0         0         0         0         0         0
         0         0         0         0         0         0         0         0
         0         0         0         0         0         0         0         0
         0         0         0         0         0         0         0         0
         0         0         0         0         0         0         0         0
         0         0         0         0         0         0         0         0
         0         0         0         0         0         0         0         0
         0         0         0         0         0         0         0         0
         0         0         0         0         0         0         0         0
         0         0         0         0         0         0         0         0
         0         0         0         0         0         0         0         0
         0         0         0         0         0         0         0         0
         0         0         0         0         0         0         0         0
         0         0         0         0         0         0         0         0
         0         0         0         0         0         0         0         0
         0         0         0         0         0         0         0         0
         0         0         0         0         0         0         0         0
         0         0         0         0         0         0         0         0
         0         0         0         0         0         0         0         0
         0         0         0         0         0         0         0         0
         0         0         0         0         0         0         0         0
         0         0         0         0         0         0         0         0
         0         0         0         0         0         0         0         0
         0         0         0         0         0         0         0         0
         0         0         0         0         0         0         0         0
         0         0         0         0         0         0         0         0
         0         0         0         0         0         0         0         0
         0         0         0         0         0         0         0         0
         0         0         0         0         0         0         0         0
         0         0         0         0         0         0         0         0
         0         0         0         0         0         0         0         0
         0         0         0         0         0         0         0         0
         0         0         0         0         0         0         0         0
         0         0         0         0         0         0         0         0
         0         0         0         0         0         0         0         0
         0         0         0         0         0         0         0         0
         0         0         0         0         0         0         0         0
         0         0         0         0         0         0         0         0
         0         0         0         0         0         0         0         0
         0         0         0         0         0         0         0         0
         0         0         0         0         0         0         0         0
         0         0         0         0         0         0         0         0
         0         0         0         0         0         0         0         0
         0         0         0         0         0         0         0         0
         0         0         0         0         0         0         0         0
         0         0         0         0         0         0         0         0
         0         0         0         0         0         0         0         0
         0         0         0         0         0         0         0         0
         0         0         0         0         0         0         0         0
         0         0         0         0         0         0         0         0
         0         0         0         0         0         0         0         0
         0         0         0         0         0         0         0         0
         0         0         0         0         0         0         0         0
         0         0         0         0         0         0         0         0
         0         0         0         0         0         0         0         0
         0         0         0         0         0         0         0         0
         0         0         0         0         0         0         0         0
         0         0         0         0         0         0         0         0
         0         0         0         0         0         0         0         0
         0         0         0         0         0         0         0         0
         0         0         0         0         0         0         0         0
         0         0         0         0         0         0         0         0
         0         0         0         0         0         0         0         0
         0         0         0         0         0         0         0         0
         0         0         0         0         0         0         0         0
         0         0         0         0         0         0         0         0
         0         0         0         0         0         0         0         0
         0         0         0         0         0         0         0         0
         0         0         0         0         0         0         0         0
         0         0         0         0         0         0         0         0
         0         0         0         0         0         0         0         0
         0         0         0         0         0         0         0         0
         0         0         0         0         0         0         0         0
         0         0         0         0         0         0         0         0
         0         0         0         0         0         0         0         0
         0         0         0         0         0         0         0         0
         0         0         0         0         0         0         0         0
         0         0         0         0         0         0         0         0
         0         0         0         0         0         0         0         0
         0         0         0         0         0         0         0         0
         0         0         0         0         0         0         0         0
         0         0         0         0         0         0         0         0
         0         0         0         0         0         0         0         0
         0         0         0         0         0         0         0         0
         0         0         0         0         0         0         0         0
         0         0         0         0         0         0         0         0
         0         0         0         0         0         0         0         0
         0         0         0         0         0         0         0         0
         0         0         0         0         0         0         0         0
         0         0         0         0         0         0         0         0
         0         0         0         0         0         0         0         0
         0         0         0         0         0         0         0         0
         0         0         0         0         0         0         0         0
         0         0         0         0         0         0         0         0
         0         0         0         0         0         0         0         0
         0         0         0         0         0         0         0         0
         0         0         0         0         0         0         0         0
         0         0         0         0         0         0         0         0
         0         0         0         0         0         0         0         0
         0         0         0         0         0         0         0         0
         0         0         0         0         0         0         0         0
         0         0         0         0         0         0         0         0
         0         0         0         0         0         0         0         0
         0         0         0         0         0         0         0         0
         0         0         0         0         0         0         0         0
         0         0         0         0         0         0         0         0
         0         0         0         0         0         0         0         0
         0         0         0         0         0         0         0         0
         0         0         0         0         0         0         0         0
         0         0         0         0         0         0         0         0
         0         0         0         0         0         0         0         0
         0         0         0         0         0         0         0         0
         0         0         0         0         0         0         0         0
         0         0         0         0         0         0         0         0
         0         0         0         0         0         0         0         0
         0         0         0         0         0         0         0         0
         0         0         0         0         0         0         0         0
         0         0         0         0         0         0         0         0
         0         0         0         0         0         0         0         0
         0         0         0         0         0         0         0         0
         0         0         0         0         0         0         0         0
         0         0         0         0         0         0         0         0
         0         0         0         0         0         0         0         0
         0         0         0         0         0         0         0         0
         0         0         0         0         0         0         0         0
         0         0         0         0         0         0         0         0
         0         0         0         0         0         0         0         0
         0         0         0         0         0         0         0         0
         0         0         0         0         0         0         0         0
         0         0         0         0         0         0         0         0
         0         0         0         0         0         0         0         0
         0         0         0         0         0         0         0         0
         0         0         0         0         0         0         0         0
         0         0         0         0         0         0         0         0
         0         0         0         0         0         0         0         0
         0         0         0         0         0         0         0         0
         0         0         0         0         0         0         0         0
         0         0         0         0         0         0         0         0
         0         0         0         0         0         0         0         0
         0         0         0         0         0         0         0         0
         0         0         0         0         0         0         0         0
         0         0         0         0         0         0         0         0
         0         0         0         0         0         0         0         0
         0         0         0         0         0         0         0         0
         0         0         0         0         0         0         0         0
         0         0         0         0         0         0         0         0
         0         0         0         0         0         0         0         0
         0         0         0         0         0         0         0         0
         0         0         0         0         0         0         0         0
         0         0         0         0         0         0         0         0
         0         0         0         0         0         0         0         0
         0         0         0         0         0         0         0         0
         0         0         0         0         0         0         0         0
         0         0         0         0         0         0         0         0
         0         0         0         0         0         0         0         0
         0         0         0         0         0         0         0         0
         0         0         0         0         0         0         0         0
         0         0         0         0         0         0         0         0
         0         0         0         0         0         0         0         0
         0         0         0         0         0         0         0         0
         0         0         0         0         0         0         0         0
         0         0         0         0         0         0         0         0
         0         0         0         0         0         0         0         0
         0         0         0         0         0         0         0         0
         0         0         0         0         0         0         0         0
         0         0         0         0         0         0         0         0
         0         0         0         0         0         0         0         0
         0         0         0         0         0         0         0         0
         0         0         0         0         0         0         0         0
         0         0         0         0         0         0         0         0
         0         0         0         0         0         0         0         0
         0         0         0         0         0         0         0         0
         0         0         0         0         0         0         0         0
         0         0         0         0         0         0         0         0
         0         0         0         0         0         0         0         0
         0         0         0         0         0         0         0         0
         0         0         0         0         0         0         0         0
         0         0         0         0         0         0         0         0
         0         0         0         0         0         0         0         0
         0         0         0         0         0         0         0         0
         0         0         0         0         0         0         0         0
         0         0         0         0         0         0         0         0
         0         0         0         0         0         0         0         0
         0         0         0         0         0         0         0         0
         0         0         0         0         0         0         0         0
         0         0         0         0         0         0         0         0
         0         0         0         0         0         0         0         0
         0         0         0         0         0         0         0         0
         0         0         0         0         0         0         0         0
         0         0         0         0         0         0         0         0
         0         0         0         0         0         0         0         0
         0         0         0         0         0         0         0         0
         0         0         0         0         0         0         0         0
         0         0         0         0         0         0         0         0
         0         0         0         0         0         0         0         0
         0         0         0         0         0         0         0         0
         0         0         0         0         0         0         0         0
         0         0         0         0         0         0         0         0
         0         0         0         0         0         0         0         0
         0         0         0         0         0         0         0         0
         0         0         0         0         0         0         0         0
         0         0         0         0         0         0         0         0
         0         0         0         0         0         0         0         0
         0         0         0         0         0         0         0         0
         0         0         0         0         0         0         0         0
         0         0         0         0         0         0         0         0
         0         0         0         0         0         0         0         0
         0         0         0         0         0         0         0         0
         0         0         0         0         0         0         0         0
         0         0         0         0         0         0         0         0
         0         0         0         0         0         0         0         0
         0         0         0         0         0         0         0         0
         0         0         0         0         0         0         0         0
         0         0         0         0         0         0         0         0
         0         0         0         0         0         0         0         0
         0         0         0         0         0         0         0         0
         0         0         0         0         0         0         0         0
         0         0         0         0         0         0         0         0
         0         0         0         0         0         0         0         0
         0         0         0         0         0         0         0         0
         0         0         0         0         0         0         0         0
         0         0         0         0         0         0         0         0
         0         0         0         0         0         0         0         0
         0         0         0         0         0         0         0         0
         0         0         0         0         0         0         0         0
         0         0         0         0         0         0         0         0
         0         0         0         0         0         0         0         0
         0         0         0         0         0         0         0         0
         0         0         0         0         0         0         0         0
         0         0         0         0         0         0         0         0
         0         0         0         0         0         0         0         0
         0         0         0         0         0         0         0         0
         0         0         0         0         0         0         0         0
         0         0         0         0         0         0         0         0
         0         0         0         0         0         0         0         0
         0         0         0         0         0         0         0         0
         0         0         0         0         0         0         0         0
         0         0         0         0         0         0         0         0
         0         0         0         0         0         0         0         0
         0         0         0         0         0         0         0         0
         0         0         0         0         0         0         0         0
         0         0         0         0         0         0         0         0
         0         0         0         0         0         0         0         0
         0         0         0         0         0         0         0         0
         0         0         0         0         0         0         0         0
         0         0         0         0         0         0         0         0
         0         0         0         0         0         0         0         0
         0         0         0         0         0         0         0         0
         0         0         0         0         0         0         0         0
         0         0         0         0         0         0         0         0
         0         0         0         0         0         0         0         0
         0         0         0         0         0         0         0         0
         0         0         0         0         0         0         0         0
         0         0         0         0         0         0         0         0
         0         0         0         0         0         0         0         0
         0         0         0         0         0         0         0         0
         0         0         0         0         0         0         0         0
         0         0         0         0         0         0         0         0
         0         0         0         0         0         0         0         0
         0         0         0         0         0         0         0         0
         0         0         0         0         0         0         0         0
         0         0         0         0         0         0         0         0
         0         0         0         0         0         0         0         0
         0         0         0         0         0         0         0         0
         0         0         0         0         0         0         0         0
         0         0         0         0         0         0         0         0
         0         0         0         0         0         0         0         0
         0         0         0         0         0         0         0         0
         0         0         0         0         0         0         0         0
         0         0         0         0         0         0         0         0
         0         0         0         0         0         0         0         0
         0         0         0         0         0         0         0         0
         0         0         0         0         0         0         0         0
         0         0         0         0         0         0         0         0
         0         0         0         0         0         0         0         0
         0         0         0         0         0         0         0         0
         0         0         0         0         0         0         0         0
         0         0         0         0         0         0         0         0
         0         0         0         0         0         0         0         0
         0         0         0         0         0         0         0         0
         0         0         0         0         0         0         0         0
         0         0         0         0         0         0         0         0
         0         0         0         0         0         0         0         0
         0         0         0         0         0         0         0         0
         0         0         0         0         0         0         0         0
         0         0         0         0         0         0         0         0
         0         0         0         0         0         0         0         0
         0         0         0         0         0         0         0         0
         0         0         0         0         0         0         0         0
         0         0         0         0         0         0         0         0
         0         0         0         0         0         0         0         0
         0         0         0         0         0         0         0         0
         0         0         0         0         0         0         0         0
         0         0         0         0         0         0         0         0
         0         0         0         0         0         0         0         0
         0         0         0         0         0         0         0         0
         0         0         0         0         0         0         0         0
         0         0         0         0         0         0         0         0
         0         0         0         0         0         0         0         0
         0         0         0         0         0         0         0         0
         0         0         0         0         0         0         0         0
         0         0         0         0         0         0         0         0
         0         0         0         0         0         0         0         0
         0         0         0         0         0         0         0         0
         0         0         0         0         0         0         0         0
         0         0         0         0         0         0         0         0
         0         0         0         0         0         0         0         0
         0         0         0         0         0         0         0         0
         0         0         0         0         0         0         0         0
         0         0         0         0         0         0         0         0
         0         0         0         0         0         0         0         0
         0         0         0         0         0         0         0         0
         0         0         0         0         0         0         0         0
         0         0         0         0         0         0         0         0
         0         0         0         0         0         0         0         0
         0         0         0         0         0         0         0         0
         0         0         0         0         0         0         0         0
         0         0         0         0         0         0         0         0
         0         0         0         0         0         0         0         0
         0         0         0         0         0         0         0         0
         0         0         0         0         0         0         0         0
         0         0         0         0         0         0         0         0
         0         0         0         0         0         0         0         0
         0         0         0         0         0         0         0         0
         0         0         0         0         0         0         0         0
         0         0         0         0         0         0         0         0
         0         0         0         0         0         0         0         0
         0         0         0         0         0         0         0         0
         0         0         0         0         0         0         0         0
         0         0         0         0         0         0         0         0
         0         0         0         0         0         0         0         0
         0         0         0         0         0         0         0         0
         0         0         0         0         0         0         0         0
         0         0         0         0         0         0         0         0
         0         0         0         0         0         0         0         0
         0         0         0         0         0         0         0         0
         0         0         0         0         0         0         0         0
         0         0         0         0         0         0         0         0
         0         0         0         0         0         0         0         0
         0         0         0         0         0         0         0         0
         0         0         0         0         0         0         0         0
         0         0         0         0         0         0         0         0
         0         0         0         0         0         0         0         0
         0         0         0         0         0         0         0         0
         0         0         0         0         0         0         0         0
         0         0         0         0         0         0         0         0
         0         0         0         0         0         0         0         0
         0         0         0         0         0         0         0         0
         0         0         0         0         0         0         0         0
         0         0         0         0         0         0         0         0
         0         0         0         0         0         0         0         0
         0         0         0         0         0         0         0         0
         0         0         0         0         0         0         0         0
         0         0         0         0         0         0         0         0
         0         0         0         0         0         0         0         0
         0         0         0         0         0         0         0         0
         0         0         0         0         0         0         0         0
         0         0         0         0         0         0         0         0
         0         0         0         0         0         0         0         0
         0         0         0         0         0         0         0         0
         0         0         0         0         0         0         0         0
         0         0         0         0         0         0         0         0
         0         0         0         0         0         0         0         0
         0         0         0         0         0         0         0         0
         0         0         0         0         0         0         0         0
         0         0         0         0         0         0         0         0
         0         0         0         0         0         0         0         0
         0         0         0         0         0         0         0         0
         0         0         0         0         0         0         0         0
         0         0         0         0         0         0         0         0
         0         0         0         0         0         0         0         0
         0         0         0         0         0         0         0         0
         0         0         0         0         0         0         0         0
         0         0         0         0         0         0         0         0
         0         0         0         0         0         0         0         0
         0         0         0         0         0         0         0         0
         0         0         0         0         0         0         0         0
         0         0         0         0         0         0         0         0
         0         0         0         0         0         0         0         0
         0         0         0         0         0         0         0         0
         0         0         0         0         0         0         0         0
         0         0         0         0         0         0         0         0
         0         0         0         0         0         0         0         0
         0         0         0         0         0         0         0         0
         0         0         0         0         0         0         0         0
         0         0         0         0         0         0         0         0
         0         0         0         0         0         0         0         0
         0         0         0         0         0         0         0         0
         0         0         0         0         0         0         0         0
         0         0         0         0         0         0         0         0
         0         0         0         0         0         0         0         0
         0         0         0         0         0         0         0         0
         0         0         0         0         0         0         0         0
         0         0         0         0         0         0         0         0
         0         0         0         0         0         0         0         0
         0         0         0         0         0         0         0         0
         0         0         0         0         0         0         0         0
         0         0         0         0         0         0         0         0
         0         0         0         0         0         0         0         0
         0         0         0         0         0         0         0         0
         0         0         0         0         0         0         0         0
         0         0         0         0         0         0         0         0
         0         0         0         0         0         0         0         0
         0         0         0         0         0         0         0         0
         0         0         0         0         0         0         0         0
         0         0         0         0         0         0         0         0
         0         0         0         0         0         0         0         0
         0         0         0         0         0         0         0         0
         0         0         0         0         0         0         0         0
         0         0         0         0         0         0         0         0
         0         0         0         0         0         0         0         0
         0         0         0         0         0         0         0         0
         0         0         0         0         0         0         0         0
         0         0         0         0         0         0         0         0
         0         0         0         0         0         0         0         0
         0         0         0         0         0         0         0         0
         0         0         0         0         0         0         0         0
         0         0         0         0         0         0         0         0
         0         0         0         0         0         0         0         0
         0         0         0         0         0         0         0         0
         0         0         0         0         0         0         0         0
         0         0         0         0         0         0         0         0
         0         0         0         0         0         0         0         0
         0         0         0         0         0         0         0         0
         0         0         0         0         0         0         0         0
         0         0         0         0         0         0         0         0
         0         0         0         0         0         0         0         0
         0         0         0         0         0         0         0         0
         0         0         0         0         0         0         0         0
         0         0         0         0         0         0         0         0
         0         0         0         0         0         0         0         0
         0         0         0         0         0         0         0         0
         0         0         0         0         0         0         0         0
         0         0         0         0         0         0         0         0
         0         0         0         0         0         0         0         0
         0         0         0         0         0         0         0         0
         0         0         0         0         0         0         0         0
         0         0         0         0         0         0         0         0
         0         0         0         0         0         0         0         0
         0         0         0         0         0         0         0         0
         0         0         0         0         0         0         0         0
         0         0         0         0         0         0         0         0
         0         0         0         0         0         0         0         0
         0         0         0         0         0         0         0         0
         0         0         0         0         0         0         0         0
         0         0         0         0         0         0         0         0
         0         0         0         0         0         0         0         0
         0         0         0         0         0         0         0         0
         0         0         0         0         0         0         0         0
         0         0         0         0         0         0         0         0
         0         0         0         0         0         0         0         0
         0         0         0         0         0         0         0         0
         0         0         0         0         0         0         0         0
         0         0         0         0         0         0         0         0
         0         0         0         0         0         0         0         0
         0         0         0         0         0         0         0         0
         0         0         0         0         0         0         0         0
         0         0         0         0         0         0         0         0
         0         0         0         0         0         0         0         0
         0         0         0         0         0         0         0         0
         0         0         0         0         0         0         0         0
         0         0         0         0         0         0         0         0
         0         0         0         0         0         0         0         0
         0         0         0         0         0         0         0         0
         0         0         0         0         0         0         0         0
         0         0         0         0         0         0         0         0
         0         0         0         0         0         0         0         0
         0         0         0         0         0         0         0         0
         0         0         0         0         0         0         0         0
         0         0         0         0         0         0         0         0
         0         0         0         0         0         0         0         0
         0         0         0         0         0         0         0         0
         0         0         0         0         0         0         0         0
         0         0         0         0         0         0         0         0
         0         0         0         0         0         0         0         0
         0         0         0         0         0         0         0         0
         0         0         0         0         0         0         0         0
         0         0         0         0         0         0         0         0
         0         0         0         0         0         0         0         0
         0         0         0         0         0         0         0         0
         0         0         0         0         0         0         0         0
         0         0         0         0         0         0         0         0
         0         0         0         0         0         0         0         0
         0         0         0         0         0         0         0         0
         0         0         0         0         0         0         0         0
         0         0         0         0         0         0         0         0
         0         0         0         0         0         0         0         0
         0         0         0         0         0         0         0         0
         0         0         0         0         0         0         0         0
         0         0         0         0         0         0         0         0
         0         0         0         0         0         0         0         0
         0         0         0         0         0         0         0         0
         0         0         0         0         0         0         0         0
         0         0         0         0         0         0         0         0
         0         0         0         0         0         0         0         0
         0         0         0         0         0         0         0         0
         0         0         0         0         0         0         0         0
         0         0         0         0         0         0         0         0
         0         0         0         0         0         0         0         0
         0         0         0         0         0         0         0         0
         0         0         0         0         0         0         0         0
         0         0         0         0         0         0         0         0
         0         0         0         0         0         0         0         0
         0         0         0         0         0         0         0         0
         0         0         0         0         0         0         0         0
         0         0         0         0         0         0         0         0
         0         0         0         0         0         0         0         0
         0         0         0         0         0         0         0         0
         0         0         0         0         0         0         0         0
         0         0         0         0         0         0         0         0
         0         0         0         0         0         0         0         0
         0         0         0         0         0         0         0         0
         0         0         0         0         0         0         0         0
         0         0         0         0         0         0         0         0
         0         0         0         0         0         0         0         0
         0         0         0         0         0         0         0         0
         0         0         0         0         0         0         0         0
         0         0         0         0         0         0         0         0
         0         0         0         0         0         0         0         0
         0         0         0         0         0         0         0         0
         0         0         0         0         0         0         0         0
         0         0         0         0         0         0         0         0
         0         0         0         0         0         0         0         0
         0         0         0         0         0         0         0         0
         0         0         0         0         0         0         0         0
         0         0         0         0         0         0         0         0
         0         0         0         0         0         0         0         0
         0         0         0         0         0         0         0         0
         0         0         0         0         0         0         0         0
         0         0         0         0         0         0         0         0
         0         0         0         0         0         0         0         0
         0         0         0         0         0         0         0         0
         0         0         0         0         0         0         0         0
         0         0         0         0         0         0         0         0
         0         0         0         0         0         0         0         0
         0         0         0         0         0         0         0         0
         0         0         0         0         0         0         0         0
         0         0         0         0         0         0         0         0
         0         0         0         0         0         0         0         0
         0         0         0         0         0         0         0         0
         0         0         0         0         0         0         0         0
         0         0         0         0         0         0         0         0
         0         0         0         0         0         0         0         0
         0         0         0         0         0         0         0         0
         0         0         0         0         0         0         0         0
         0         0         0         0         0         0         0         0
         0         0         0         0         0         0         0         0
         0         0         0         0         0         0         0         0
         0         0         0         0         0         0         0         0
         0         0         0         0         0         0         0         0
         0         0         0         0         0         0         0         0
         0         0         0         0         0         0         0         0
         0         0         0         0         0         0         0         0
         0         0         0         0         0         0         0         0
         0         0         0         0         0         0         0         0
         0         0         0         0         0         0         0         0
         0         0         0         0         0         0         0         0
         0         0         0         0         0         0         0         0
         0         0         0         0         0         0         0         0
         0         0         0         0         0         0         0         0
         0         0         0         0         0         0         0         0
         0         0         0         0         0         0         0         0
         0         0         0         0         0         0         0         0
         0         0         0         0         0         0         0         0
         0         0         0         0         0         0         0         0
         0         0         0         0         0         0         0         0
         0         0         0         0         0         0         0         0
         0         0         0         0         0         0         0         0
         0         0         0         0         0         0         0         0
         0         0         0         0         0         0         0         0
         0         0         0         0         0         0         0         0
         0         0         0         0         0         0         0         0
         0         0         0         0         0         0         0         0
         0         0         0         0         0         0         0         0
         0         0         0         0         0         0         0         0
         0         0         0         0         0         0         0         0
         0         0         0         0         0         0         0         0
         0         0         0         0         0         0         0         0
         0         0         0         0         0         0         0         0
         0         0         0         0         0         0         0         0
         0         0         0         0         0         0         0         0
         0         0         0         0         0         0         0         0
         0         0         0         0         0         0         0         0
         0         0         0         0         0         0         0         0
         0         0         0         0         0         0         0         0
         0         0         0         0         0         0         0         0
         0         0         0         0         0         0         0         0
         0         0         0         0         0         0         0         0
         0         0         0         0         0         0         0         0
         0         0         0         0         0         0         0         0
         0         0         0         0         0         0         0         0
         0         0         0         0         0         0         0         0
         0         0         0         0         0         0         0         0
         0         0         0         0         0         0         0         0
         0         0         0         0         0         0         0         0
         0         0         0         0         0         0         0         0
         0         0         0         0         0         0         0         0
         0         0         0         0         0         0         0         0
         0         0         0         0         0         0         0         0
         0         0         0         0         0         0         0         0
         0         0         0         0         0         0         0         0
         0         0         0         0         0         0         0         0
         0         0         0         0         0         0         0         0
         0         0         0         0         0         0         0         0
         0         0         0         0         0         0         0         0
         0         0         0         0         0         0         0         0
         0         0         0         0         0         0         0         0
         0         0         0         0         0         0         0         0
         0         0         0         0         0         0         0         0
         0         0         0         0         0         0         0         0
         0         0         0         0         0         0         0         0
         0         0         0         0         0         0         0         0
         0         0         0         0         0         0         0         0
         0         0         0         0         0         0         0         0
         0         0         0         0         0         0         0         0
         0         0         0         0         0         0         0         0
         0         0         0         0         0         0         0         0
         0         0         0         0         0         0         0         0
         0         0         0         0         0         0         0         0
         0         0         0         0         0         0         0         0
         0         0         0         0         0         0         0         0
         0         0         0         0         0         0         0         0
         0         0         0         0         0         0         0         0
         0         0         0         0         0         0         0         0
         0         0         0         0         0         0         0         0
         0         0         0         0         0         0         0         0
         0         0         0         0         0         0         0         0
         0         0         0         0         0         0         0         0
         0         0         0         0         0         0         0         0
         0         0         0         0         0         0         0         0
         0         0         0         0         0         0         0         0
         0         0         0         0         0         0         0         0
         0         0         0         0         0         0         0         0
         0         0         0         0         0         0         0         0
         0         0         0         0         0         0         0         0
         0         0         0         0         0         0         0         0
         0         0         0         0         0         0         0         0
         0         0         0         0         0         0         0         0
         0         0         0         0         0         0         0         0
         0         0         0         0         0         0         0         0
         0         0         0         0         0         0         0         0
         0         0         0         0         0         0         0         0
         0         0         0         0         0         0         0         0
         0         0         0         0         0         0         0         0
         0         0         0         0         0         0         0         0
         0         0         0         0         0         0         0         0
         0         0         0         0         0         0         0         0
         0         0         0         0         0         0         0         0
         0         0         0         0         0         0         0         0
         0         0         0         0         0         0         0         0
         0         0         0         0         0         0         0         0
         0         0         0         0         0         0         0         0
         0         0         0         0         0         0         0         0
         0         0         0         0         0         0         0         0
         0         0         0         0         0         0         0         0
         0         0         0         0         0         0         0         0
         0         0         0         0         0         0         0         0
         0         0         0         0         0         0         0         0
         0         0         0         0         0         0         0         0
         0         0         0         0         0         0         0         0
         0         0         0         0         0         0         0         0
         0         0         0         0         0         0         0         0
         0         0         0         0         0         0         0         0
         0         0         0         0         0         0         0         0
         0         0         0         0         0         0         0         0
         0         0         0         0         0         0         0         0
         0         0         0         0         0         0         0         0
         0         0         0         0         0         0         0         0
         0         0         0         0         0         0         0         0
         0         0         0         0         0         0         0         0
         0         0         0         0         0         0         0         0
         0         0         0         0         0         0         0         0
         0         0         0         0         0         0         0         0
         0         0         0         0         0         0         0         0
         0         0         0         0         0         0         0         0
         0         0         0         0         0         0         0         0
         0         0         0         0         0         0         0         0
         0         0         0         0         0         0         0         0
         0         0         0         0         0         0         0         0
         0         0         0         0         0         0         0         0
         0         0         0         0         0         0         0         0
         0         0         0         0         0         0         0         0
         0         0         0         0         0         0         0         0
         0         0         0         0         0         0         0         0
         0         0         0         0         0         0         0         0
         0         0         0         0         0         0         0         0
         0         0         0         0         0         0         0         0
         0         0         0         0         0         0         0         0
         0         0         0         0         0         0         0         0
         0         0         0         0         0         0         0         0
         0         0         0         0         0         0         0         0
         0         0         0         0         0         0         0         0
         0         0         0         0         0         0         0         0
         0         0         0         0         0         0         0         0
         0         0         0         0         0         0         0         0
         0         0         0         0         0         0         0         0
         0         0         0         0         0         0         0         0
         0         0         0         0         0         0         0         0
         0         0         0         0         0         0         0         0
         0         0         0         0         0         0         0         0
         0         0         0         0         0         0         0         0
         0         0         0         0         0         0         0         0
         0         0         0         0         0         0         0         0
         0         0         0         0         0         0         0         0
         0         0         0         0         0         0         0         0
         0         0         0         0         0         0         0         0
         0         0         0         0         0         0         0         0
         0         0         0         0         0         0         0         0
         0         0         0         0         0         0         0         0
         0         0         0         0         0         0         0         0
         0         0         0         0         0         0         0         0
         0         0         0         0         0         0         0         0
         0         0         0         0         0         0         0         0
         0         0         0         0         0         0         0         0
         0         0         0         0         0         0         0         0
         0         0         0         0         0         0         0         0
         0         0         0         0         0         0         0         0
         0         0         0         0         0         0         0         0
         0         0         0         0         0         0         0         0
         0         0         0         0         0         0         0         0
         0         0         0         0         0         0         0         0
         0         0         0         0         0         0         0         0
         0         0         0         0         0         0         0         0
         0         0         0         0         0         0         0         0
         0         0         0         0         0         0         0         0
         0         0         0         0         0         0         0         0
         0         0         0         0         0         0         0         0
         0         0         0         0         0         0         0         0
         0         0         0         0         0         0         0         0
         0         0         0         0         0         0         0         0
         0         0         0         0         0         0         0         0
         0         0         0         0         0         0         0         0
         0         0         0         0         0         0         0         0
         0         0         0         0         0         0         0         0
         0         0         0         0         0         0         0         0
         0         0         0         0         0         0         0         0
         0         0         0         0         0         0         0         0
         0         0         0         0         0         0         0         0
         0         0         0         0         0         0         0         0
         0         0         0         0         0         0         0         0
         0         0         0         0         0         0         0         0
         0         0         0         0         0         0         0         0
         0         0         0         0         0         0         0         0
         0         0         0         0         0         0         0         0
         0         0         0         0         0         0         0         0
         0         0         0         0         0         0         0         0
         0         0         0         0         0         0         0         0
         0         0         0         0         0         0         0         0
         0         0         0         0         0         0         0         0
         0         0         0         0         0         0         0         0
         0         0         0         0         0         0         0         0
         0         0         0         0         0         0         0         0
         0         0         0         0         0         0         0         0
         0         0         0         0         0         0         0         0
         0         0         0         0         0         0         0         0
         0         0         0         0         0         0         0         0
         0         0         0         0         0         0         0         0
         0         0         0         0         0         0         0         0
         0         0         0         0         0         0         0         0
         0         0         0         0         0         0         0         0
         0         0         0         0         0         0         0         0
         0         0         0         0         0         0         0         0
         0         0         0         0         0         0         0         0
         0         0         0         0         0         0         0         0
         0         0         0         0         0         0         0         0
         0         0         0         0         0         0         0         0
         0         0         0         0         0         0         0         0
         0         0         0         0         0         0         0         0
         0         0         0         0         0         0         0         0
         0         0         0         0         0         0         0         0
         0         0         0         0         0         0         0         0
         0         0         0         0         0         0         0         0
         0         0         0         0         0         0         0         0
         0         0         0         0         0         0         0         0
         0         0         0         0         0         0         0         0
         0         0         0         0         0         0         0         0
         0         0         0         0         0         0         0         0
         0         0         0         0         0         0         0         0
         0         0         0         0         0         0         0         0
         0         0         0         0         0         0         0         0
         0         0         0         0         0         0         0         0
         0         0         0         0         0         0         0         0
         0         0         0         0         0         0         0         0
         0         0         0         0         0         0         0         0
         0         0         0         0         0         0         0         0
         0         0         0         0         0         0         0         0
         0         0         0         0         0         0         0         0
         0         0         0         0         0         0         0         0
         0         0         0         0         0         0         0         0
         0         0         0         0         0         0         0         0
         0         0         0         0         0         0         0         0
         0         0         0         0         0         0         0         0
         0         0         0         0         0         0         0         0
         0         0         0         0         0         0         0         0
         0         0         0         0         0         0         0         0
         0         0         0         0         0         0         0         0
         0         0         0         0         0         0         0         0
         0         0         0         0         0         0         0         0
         0         0         0         0         0         0         0         0
         0         0         0         0         0         0         0         0
         0         0         0         0         0         0         0         0
         0         0         0         0         0         0         0         0
         0         0         0         0         0         0         0         0
         0         0         0         0         0         0         0         0
         0         0         0         0         0         0         0         0
         0         0         0         0         0         0         0         0
         0         0         0         0         0         0         0         0
         0         0         0         0         0         0         0         0
         0         0         0         0         0         0         0         0
         0         0         0         0         0         0         0         0
         0         0         0         0         0         0         0         0
         0         0         0         0         0         0         0         0
         0         0         0         0         0         0         0         0
         0         0         0         0         0         0         0         0
         0         0         0         0         0         0         0         0
         0         0         0         0         0         0         0         0
         0         0         0         0         0         0         0         0
         0         0         0         0         0         0         0         0
         0         0         0         0         0         0         0         0
         0         0         0         0         0         0         0         0
         0         0         0         0         0         0         0         0
         0         0         0         0         0         0         0         0
         0         0         0         0         0         0         0         0
         0         0         0         0         0         0         0         0
         0         0         0         0         0         0         0         0
         0         0         0         0         0         0         0         0
         0         0         0         0         0         0         0         0
         0         0         0         0         0         0         0         0
         0         0         0         0         0         0         0         0
         0         0         0         0         0         0         0         0
         0         0         0         0         0         0         0         0
         0         0         0         0         0         0         0         0
         0         0         0         0         0         0         0         0
         0         0         0         0         0         0         0         0
         0         0         0         0         0         0         0         0
         0         0         0         0         0         0         0         0
         0         0         0         0         0         0         0         0
         0         0         0         0         0         0         0         0
         0         0         0         0         0         0         0         0
         0         0         0         0         0         0         0         0
         0         0         0         0         0         0         0         0
         0         0         0         0         0         0         0         0
         0         0         0         0         0         0         0         0
         0         0         0         0         0         0         0         0
         0         0         0         0         0         0         0         0
         0         0         0         0         0         0         0         0
         0         0         0         0         0         0         0         0
         0         0         0         0         0         0         0         0
         0         0         0         0         0         0         0         0
         0         0         0         0         0         0         0         0
         0         0         0         0         0         0         0         0
         0         0         0         0         0         0         0         0
         0         0         0         0         0         0         0         0
         0         0         0         0         0         0         0         0
         0         0         0         0         0         0         0         0
         0         0         0         0         0         0         0         0
         0         0         0         0         0         0         0         0
         0         0         0         0         0         0         0         0
         0         0         0         0         0         0         0         0
         0         0         0         0         0         0         0         0
         0         0         0         0         0         0         0         0
         0         0         0         0         0         0         0         0
         0         0         0         0         0         0         0         0
         0         0         0         0         0         0         0         0
         0         0         0         0         0         0         0         0
         0         0         0         0         0         0         0         0
         0         0         0         0         0         0         0         0
         0         0         0         0         0         0         0         0
         0         0         0         0         0         0         0         0
         0         0         0         0         0         0         0         0
         0         0         0         0         0         0         0         0
         0         0         0         0         0         0         0         0
         0         0         0         0         0         0         0         0
         0         0         0         0         0         0         0         0
         0         0         0         0         0         0         0         0
         0         0         0         0         0         0         0         0
         0         0         0         0         0         0         0         0
         0         0         0         0         0         0         0         0
         0         0         0         0         0         0         0         0
         0         0         0         0         0         0         0         0
         0         0         0         0         0         0         0         0
         0         0         0         0         0         0         0         0
         0         0         0         0         0         0         0         0
         0         0         0         0         0         0         0         0
         0         0         0         0         0         0         0         0
         0         0         0         0         0         0         0         0
         0         0         0         0         0         0         0         0
         0         0         0         0         0         0         0         0
         0         0         0         0         0         0         0         0
         0         0         0         0         0         0         0         0
         0         0         0         0         0         0         0         0
         0         0         0         0         0         0         0         0
         0         0         0         0         0         0         0         0
         0         0         0         0         0         0         0         0
         0         0         0         0         0         0         0         0
         0         0         0         0         0         0         0         0
         0         0         0         0         0         0         0         0
         0         0         0         0         0         0         0         0
         0         0         0         0         0         0         0         0
         0         0         0         0         0         0         0         0
         0         0         0         0         0         0         0         0
         0         0         0         0         0         0         0         0
         0         0         0         0         0         0         0         0
         0         0         0         0         0         0         0         0
         0         0         0         0         0         0         0         0
         0         0         0         0         0         0         0         0
         0         0         0         0         0         0         0         0
         0         0         0         0         0         0         0         0
         0         0         0         0         0         0         0         0
         0         0         0         0         0         0         0         0
         0         0         0         0         0         0         0         0
         0         0         0         0         0         0         0         0
         0         0         0         0         0         0         0         0
         0         0         0         0         0         0         0         0
         0         0         0         0         0         0         0         0
         0         0         0         0         0         0         0         0
         0         0         0         0         0         0         0         0
         0         0         0         0         0         0         0         0
         0         0         0         0         0         0         0         0
         0         0         0         0         0         0         0         0
         0         0         0         0         0         0         0         0
         0         0         0         0         0         0         0         0
         0         0         0         0         0         0         0         0
         0         0         0         0         0         0         0         0
         0         0         0         0         0         0         0         0
         0         0         0         0         0         0         0         0
         0         0         0         0         0         0         0         0
         0         0         0         0         0         0         0         0
         0         0         0         0         0         0         0         0
         0         0         0         0         0         0         0         0
         0         0         0         0         0         0         0         0
         0         0         0         0         0         0         0         0
         0         0         0         0         0         0         0         0
         0         0         0         0         0         0         0         0
         0         0         0         0         0         0         0         0
         0         0         0         0         0         0         0         0
         0         0         0         0         0         0         0         0
         0         0         0         0         0         0         0         0
         0         0         0         0         0         0         0         0
         0         0         0         0         0         0         0         0
         0         0         0         0         0         0         0         0
         0         0         0         0         0         0         0         0
         0         0         0         0         0         0         0         0
         0         0         0         0         0         0         0         0
         0         0         0         0         0         0         0         0
         0         0         0         0         0         0         0         0
         0         0         0         0         0         0         0         0
         0         0         0         0         0         0         0         0
         0         0         0         0         0         0         0         0
         0         0         0         0         0         0         0         0
         0         0         0         0         0         0         0         0
         0         0         0         0         0         0         0         0
         0         0         0         0         0         0         0         0
         0         0         0         0         0         0         0         0
         0         0         0         0         0         0         0         0
         0         0         0         0         0         0         0         0
         0         0         0         0         0         0         0         0
         0         0         0         0         0         0         0         0
         0         0         0         0         0         0         0         0
         0         0         0         0         0         0         0         0
         0         0         0         0         0         0         0         0
         0         0         0         0         0         0         0         0
         0         0         0         0         0         0         0         0
         0         0         0         0         0         0         0         0
         0         0         0         0         0         0         0         0
         0         0         0         0         0         0         0         0
         0         0         0         0         0         0         0         0
         0         0         0         0         0         0         0         0
         0         0         0         0         0         0         0         0
         0         0         0         0         0         0         0         0
         0         0         0         0         0         0         0         0
         0         0         0         0         0         0         0         0
         0         0         0         0         0         0         0         0
         0         0         0         0         0         0         0         0
         0         0         0         0         0         0         0         0
         0         0         0         0         0         0         0         0
         0         0         0         0         0         0         0         0
         0         0         0         0         0         0         0         0
         0         0         0         0         0         0         0         0
         0         0         0         0         0         0         0         0
         0         0         0         0         0         0         0         0
         0         0         0         0         0         0         0         0
         0         0         0         0         0         0         0         0
         0         0         0         0         0         0         0         0
         0         0         0         0         0         0         0         0
         0         0         0         0         0         0         0         0
         0         0         0         0         0         0         0         0
         0         0         0         0         0         0         0         0
         0         0         0         0         0         0         0         0
         0         0         0         0         0         0         0         0
         0         0         0         0         0         0         0         0
         0         0         0         0         0         0         0         0
         0         0         0         0         0         0         0         0
         0         0         0         0         0         0         0         0
         0         0         0         0         0         0         0         0
         0         0         0         0         0         0         0         0
         0         0         0         0         0         0         0         0
         0         0         0         0         0         0         0         0
         0         0         0         0         0         0         0         0
         0         0         0         0         0         0         0         0
         0         0         0         0         0         0         0         0
         0         0         0         0         0         0         0         0
         0         0         0         0         0         0         0         0
         0         0         0         0         0         0         0         0
         0         0         0         0         0         0         0         0
         0         0         0         0         0         0         0         0
         0         0         0         0         0         0         0         0
         0         0         0         0         0         0         0         0
         0         0         0         0         0         0         0         0
         0         0         0         0         0         0         0         0
         0         0         0         0         0         0         0         0
         0         0         0         0         0         0         0         0
         0         0         0         0         0         0         0         0
         0         0         0         0         0         0         0         0
         0         0         0         0         0         0         0         0
         0         0         0         0         0         0         0         0
         0         0         0         0         0         0         0         0
         0         0         0         0         0         0         0         0
         0         0         0         0         0         0         0         0
         0         0         0         0         0         0         0         0
         0         0         0         0         0         0         0         0
         0         0         0         0         0         0         0         0
         0         0         0         0         0         0         0         0
         0         0         0         0         0         0         0         0
         0         0         0         0         0         0         0         0
         0         0         0         0         0         0         0         0
         0         0         0         0         0         0         0         0
         0         0         0         0         0         0         0         0
         0         0         0         0         0         0         0         0
         0         0         0         0         0         0         0         0
         0         0         0         0         0         0         0         0
         0         0         0         0         0         0         0         0
         0         0         0         0         0         0         0         0
         0         0         0         0         0         0         0         0
         0         0         0         0         0         0         0         0
         0         0         0         0         0         0         0         0
         0         0         0         0         0         0         0         0
         0         0         0         0         0         0         0         0
         0         0         0         0         0         0         0         0
         0         0         0         0         0         0         0         0
         0         0         0         0         0         0         0         0
         0         0         0         0         0         0         0         0
         0         0         0         0         0         0         0         0
         0         0         0         0         0         0         0         0
         0         0         0         0         0         0         0         0
         0         0         0         0         0         0         0         0
         0         0         0         0         0         0         0         0
         0         0         0         0         0         0         0         0
         0         0         0         0         0         0         0         0
         0         0         0         0         0         0         0         0
         0         0         0         0         0         0         0         0
         0         0         0         0         0         0         0         0
         0         0         0         0         0         0         0         0
         0         0         0         0         0         0         0         0
         0         0         0         0         0         0         0         0
         0         0         0         0         0         0         0         0
         0         0         0         0         0         0         0         0
         0         0         0         0         0         0         0         0
         0         0         0         0         0         0         0         0
         0         0         0         0         0         0         0         0
         0         0         0         0         0         0         0         0
         0         0         0         0         0         0         0         0
         0         0         0         0         0         0         0         0
         0         0         0         0         0         0         0         0
         0         0         0         0         0         0         0         0
         0         0         0         0         0         0         0         0
         0         0         0         0         0         0         0         0
         0         0         0         0         0         0         0         0
         0         0         0         0         0         0         0         0
         0         0         0         0         0         0         0         0
         0         0         0         0         0         0         0         0
         0         0         0         0         0         0         0         0
         0         0         0         0         0         0         0         0
         0         0         0         0         0         0         0         0
         0         0         0         0         0         0         0         0
         0         0         0         0         0         0         0         0
         0         0         0         0         0         0         0         0
         0         0         0         0         0         0         0         0
         0         0         0         0         0         0         0         0
         0         0         0         0         0         0         0         0
         0         0         0         0         0         0         0         0
         0         0         0         0         0         0         0         0
         0         0         0         0         0         0         0         0
         0         0         0         0         0         0         0         0
         0         0         0         0         0         0         0         0
         0         0         0         0         0         0         0         0
         0         0         0         0         0         0         0         0
         0         0         0         0         0         0         0         0
         0         0         0         0         0         0         0         0
         0         0         0         0         0         0         0         0
         0         0         0         0         0         0         0         0
         0         0         0         0         0         0         0         0
         0         0         0         0         0         0         0         0
         0         0         0         0         0         0         0         0
         0         0         0         0         0         0         0         0
         0         0         0         0         0         0         0         0
         0         0         0         0         0         0         0         0
         0         0         0         0         0         0         0         0
         0         0         0         0         0         0         0         0
         0         0         0         0         0         0         0         0
         0         0         0         0         0         0         0         0
         0         0         0         0         0         0         0         0
         0         0         0         0         0         0         0         0
         0         0         0         0         0         0         0         0
         0         0         0         0         0         0         0         0
         0         0         0         0         0         0         0         0
         0         0         0         0         0         0         0         0
         0         0         0         0         0         0         0         0
         0         0         0         0         0         0         0         0
         0         0         0         0         0         0         0         0
         0         0         0         0         0         0         0         0
         0         0         0         0         0         0         0         0
         0         0         0         0         0         0         0         0
         0         0         0         0         0         0         0         0
         0         0         0         0         0         0         0         0
         0         0         0         0         0         0         0         0
         0         0         0         0         0         0         0         0
         0         0         0         0         0         0         0         0
         0         0         0         0         0         0         0         0
         0         0         0         0         0         0         0         0
         0         0         0         0         0         0         0         0
         0         0         0         0         0         0         0         0
         0         0         0         0         0         0         0         0
         0         0         0         0         0         0         0         0
         0         0         0         0         0         0         0         0
         0         0         0         0         0         0         0         0
         0         0         0         0         0         0         0         0
         0         0         0         0         0         0         0         0
         0         0         0         0         0         0         0         0
         0         0         0         0         0         0         0         0
         0         0         0         0         0         0         0         0
         0         0         0         0         0         0         0         0
         0         0         0         0         0         0         0         0
         0         0         0         0         0         0         0         0
         0         0         0         0         0         0         0         0
         0         0         0         0         0         0         0         0
         0         0         0         0         0         0         0         0
         0         0         0         0         0         0         0         0
         0         0         0         0         0         0         0         0
         0         0         0         0         0         0         0         0
         0         0         0         0         0         0         0         0
         0         0         0         0         0         0         0         0
         0         0         0         0         0         0         0         0
         0         0         0         0         0         0         0         0
         0         0         0         0         0         0         0         0
         0         0         0         0         0         0         0         0
         0         0         0         0         0         0         0         0
         0         0         0         0         0         0         0         0
         0         0         0         0         0         0         0         0
         0         0         0         0         0         0         0         0
         0         0         0         0         0         0         0         0
         0         0         0         0         0         0         0         0
         0         0         0         0         0         0         0         0
         0         0         0         0         0         0         0         0
         0         0         0         0         0         0         0         0
         0         0         0         0         0         0         0         0
         0         0         0         0         0         0         0         0
         0         0         0         0         0         0         0         0
         0         0         0         0         0         0         0         0
         0         0         0         0         0         0         0         0
         0         0         0         0         0         0         0         0
         0         0         0         0         0         0         0         0
         0         0         0         0         0         0         0         0
         0         0         0         0         0         0         0         0
         0         0         0         0         0         0         0         0
         0         0         0         0         0         0         0         0
         0         0         0         0         0         0         0         0
         0         0         0         0         0         0         0         0
         0         0         0         0         0         0         0         0
         0         0         0         0         0         0         0         0
         0         0         0         0         0         0         0         0
         0         0         0         0         0         0         0         0
         0         0         0         0         0         0         0         0
         0         0         0         0         0         0         0         0
         0         0         0         0         0         0         0         0
         0         0         0         0         0         0         0         0
         0         0         0         0         0         0         0         0
         0         0         0         0         0         0         0         0
         0         0         0         0         0         0         0         0
         0         0         0         0         0         0         0         0
         0         0         0         0         0         0         0         0
         0         0         0         0         0         0         0         0
         0         0         0         0         0         0         0         0
         0         0         0         0         0         0         0         0
         0         0         0         0         0         0         0         0
         0         0         0         0         0         0         0         0
         0         0         0         0         0         0         0         0
         0         0         0         0         0         0         0         0
         0         0         0         0         0         0         0         0
         0         0         0         0         0         0         0         0
         0         0         0         0         0         0         0         0
         0         0         0         0         0         0         0         0
         0         0         0         0         0         0         0         0
         0         0         0         0         0         0         0         0
         0         0         0         0         0         0         0         0
         0         0         0         0         0         0         0         0
         0         0         0         0         0         0         0         0
         0         0         0         0         0         0         0         0
         0         0         0         0         0         0         0         0
         0         0         0         0         0         0         0         0
         0         0         0         0         0         0         0         0
         0         0         0         0         0         0         0         0
         0         0         0         0         0         0         0         0
         0         0         0         0         0         0         0         0
         0         0         0         0         0         0         0         0
         0         0         0         0         0         0         0         0
         0         0         0         0         0         0         0         0
         0         0         0         0         0         0         0         0
         0         0         0         0         0         0         0         0
         0         0         0         0         0         0         0         0
         0         0         0         0         0         0         0         0
         0         0         0         0         0         0         0         0
         0         0         0         0         0         0         0         0
         0         0         0         0         0         0         0         0
         0         0         0         0         0         0         0         0
         0         0         0         0         0         0         0         0
         0         0         0         0         0         0         0         0
         0         0         0         0         0         0         0         0
         0         0         0         0         0         0         0         0
         0         0         0         0         0         0         0         0
         0         0         0         0         0         0         0         0
         0         0         0         0         0         0         0         0
         0         0         0         0         0         0         0         0
         0         0         0         0         0         0         0         0
         0         0         0         0         0         0         0         0
         0         0         0         0         0         0         0         0
         0         0         0         0         0         0         0         0
         0         0         0         0         0         0         0         0
         0         0         0         0         0         0         0         0
         0         0         0         0         0         0         0         0
         0         0         0         0         0         0         0         0
         0         0         0         0         0         0         0         0
         0         0         0         0         0         0         0         0
         0         0         0         0         0         0         0         0
         0         0         0         0         0         0         0         0
         0         0         0         0         0         0         0         0
         0         0         0         0         0         0         0         0
         0         0         0         0         0         0         0         0
         0         0         0         0         0         0         0         0
         0         0         0         0         0         0         0         0
         0         0         0         0         0         0         0         0
         0         0         0         0         0         0         0         0
         0         0         0         0         0         0         0         0
         0         0         0         0         0         0         0         0
         0         0         0         0         0         0         0         0
         0         0         0         0         0         0         0         0
         0         0         0         0         0         0         0         0
         0         0         0         0         0         0         0         0
         0         0         0         0         0         0         0         0
         0         0         0         0         0         0         0         0
         0         0         0         0         0         0         0         0
         0         0         0         0         0         0         0         0
         0         0         0         0         0         0         0         0
         0         0         0         0         0         0         0         0
         0         0         0         0         0         0         0         0
         0         0         0         0         0         0         0         0
         0         0         0         0         0         0         0         0
         0         0         0         0         0         0         0         0
         0         0         0         0         0         0         0         0
         0         0         0         0         0         0         0         0
         0         0         0         0         0         0         0         0
         0         0         0         0         0         0         0         0
         0         0         0         0         0         0         0         0
         0         0         0         0         0         0         0         0
         0         0         0         0         0         0         0         0
         0         0         0         0         0         0         0         0
         0         0         0         0         0         0         0         0
         0         0         0         0         0         0         0         0
         0         0         0         0         0         0         0         0
         0         0         0         0         0         0         0         0
         0         0         0         0         0         0         0         0
         0         0         0         0         0         0         0         0
         0         0         0         0         0         0         0         0
         0         0         0         0         0         0         0         0
         0         0         0         0         0         0         0         0
         0         0         0         0         0         0         0         0
         0         0         0         0         0         0         0         0
         0         0         0         0         0         0         0         0
         0         0         0         0         0         0         0         0
         0         0         0         0         0         0         0         0
         0         0         0         0         0         0         0         0
         0         0         0         0         0         0         0         0
         0         0         0         0         0         0         0         0
         0         0         0         0         0         0         0         0
         0         0         0         0         0         0         0         0
         0         0         0         0         0         0         0         0
         0         0         0         0         0         0         0         0
         0         0         0         0         0         0         0         0
         0         0         0         0         0         0         0         0
         0         0         0         0         0         0         0         0
         0         0         0         0         0         0         0         0
         0         0         0         0         0         0         0         0
         0         0         0         0         0         0         0         0
         0         0         0         0         0         0         0         0
         0         0         0         0         0         0         0         0
         0         0         0         0         0         0         0         0
         0         0         0         0         0         0         0         0
         0         0         0         0         0         0         0         0
         0         0         0         0         0         0         0         0
         0         0         0         0         0         0         0         0
         0         0         0         0         0         0         0         0
         0         0         0         0         0         0         0         0
         0         0         0         0         0         0         0         0
         0         0         0         0         0         0         0         0
         0         0         0         0         0         0         0         0
         0         0         0         0         0         0         0         0
         0         0         0         0         0         0         0         0
         0         0         0         0         0         0         0         0
         0         0         0         0         0         0         0         0
         0         0         0         0         0         0         0         0
         0         0         0         0         0         0         0         0
         0         0         0         0         0         0         0         0
         0         0         0         0         0         0         0         0
         0         0         0         0         0         0         0         0
         0         0         0         0         0         0         0         0
         0         0         0         0         0         0         0         0
         0         0         0         0         0         0         0         0
         0         0         0         0         0         0         0         0
         0         0         0         0         0         0         0         0
         0         0         0         0         0         0         0         0
         0         0         0         0         0         0         0         0
         0         0         0         0         0         0         0         0
         0         0         0         0         0         0         0         0
         0         0         0         0         0         0         0         0
         0         0         0         0         0         0         0         0
         0         0         0         0         0         0         0         0
         0         0         0         0         0         0         0         0
         0         0         0         0         0         0         0         0
         0         0         0         0         0         0         0         0
         0         0         0         0         0         0         0         0
         0         0         0         0         0         0         0         0
         0         0         0         0         0         0         0         0
         0         0         0         0         0         0         0         0
         0         0         0         0         0         0         0         0
         0         0         0         0         0         0         0         0
         0         0         0         0         0         0         0         0
         0         0         0         0         0         0         0         0
         0         0         0         0         0         0         0         0
         0         0         0         0         0         0         0         0
         0         0         0         0         0         0         0         0
         0         0         0         0         0         0         0         0
         0         0         0         0         0         0         0         0
         0         0         0         0         0         0         0         0
         0         0         0         0         0         0         0         0
         0         0         0         0         0         0         0         0
         0         0         0         0         0         0         0         0
         0         0         0         0         0         0         0         0
         0         0         0         0         0         0         0         0
         0         0         0         0         0         0         0         0
         0         0         0         0         0         0         0         0
         0         0         0         0         0         0         0         0
         0         0         0         0         0         0         0         0
         0         0         0         0         0         0         0         0
         0         0         0         0         0         0         0         0
         0         0         0         0         0         0         0         0
         0         0         0         0         0         0         0         0
         0         0         0         0         0         0         0         0
         0         0         0         0         0         0         0         0
         0         0         0         0         0         0         0         0
         0         0         0         0         0         0         0         0
         0         0         0         0         0         0         0         0
         0         0         0         0         0         0         0         0
         0         0         0         0         0         0         0         0
         0         0         0         0         0         0         0         0
         0         0         0         0         0         0         0         0
         0         0         0         0         0         0         0         0
         0         0         0         0         0         0         0         0
         0         0         0         0         0         0         0         0
         0         0         0         0         0         0         0         0
         0         0         0         0         0         0         0         0
         0         0         0         0         0         0         0         0
         0         0         0         0         0         0         0         0
         0         0         0         0         0         0         0         0
         0         0         0         0         0         0         0         0
         0         0         0         0         0         0         0         0
         0         0         0         0         0         0         0         0
         0         0         0         0         0         0         0         0
         0         0         0         0         0         0         0         0
         0         0         0         0         0         0         0         0
         0         0         0         0         0         0         0         0
         0         0         0         0         0         0         0         0
         0         0         0         0         0         0         0         0
         0         0         0         0         0         0         0         0
         0         0         0         0         0         0         0         0
         0         0         0         0         0         0         0         0
         0         0         0         0         0         0         0         0
         0         0         0         0         0         0         0         0
         0         0         0         0         0         0         0         0
         0         0         0         0         0         0         0         0
         0         0         0         0         0         0         0         0
         0         0         0         0         0         0         0         0
         0         0         0         0         0         0         0         0
         0         0         0         0         0         0         0         0
         0         0         0         0         0         0         0         0
         0         0         0         0         0         0         0         0
         0         0         0         0         0         0         0         0
         0         0         0         0         0         0         0         0
         0         0         0         0         0         0         0         0
         0         0         0         0         0         0         0         0
         0         0         0         0         0         0         0         0
         0         0         0         0         0         0         0         0
         0         0         0         0         0         0         0         0
         0         0         0         0         0         0         0         0
         0         0         0         0         0         0         0         0
         0         0         0         0         0         0         0         0
         0         0         0         0         0         0         0         0
         0         0         0         0         0         0         0         0
         0         0         0         0         0         0         0         0
         0         0         0         0         0         0         0         0
         0         0         0         0         0         0         0         0
         0         0         0         0         0         0         0         0
         0         0         0         0         0         0         0         0
         0         0         0         0         0         0         0         0
         0         0         0         0         0         0         0         0
         0         0         0         0         0         0         0         0
         0         0         0         0         0         0         0         0
         0         0         0         0         0         0         0         0
         0         0         0         0         0         0         0         0
         0         0         0         0         0         0         0         0
         0         0         0         0         0         0         0         0
         0         0         0         0         0         0         0         0
         0         0         0         0         0         0         0         0
         0         0         0         0         0         0         0         0
         0         0         0         0         0         0         0         0
         0         0         0         0         0         0         0         0
         0         0         0         0         0         0         0         0
         0         0         0         0         0         0         0         0
         0         0         0         0         0         0         0         0
         0         0         0         0         0         0         0         0
         0         0         0         0         0         0         0         0
         0         0         0         0         0         0         0         0
         0         0         0         0         0         0         0         0
         0         0         0         0         0         0         0         0
         0         0         0         0         0         0         0         0
         0         0         0         0         0         0         0         0
         0         0         0         0         0         0         0         0
         0         0         0         0         0         0         0         0
         0         0         0         0         0         0         0         0
         0         0         0         0         0         0         0         0
         0         0         0         0         0         0         0         0
         0         0         0         0         0         0         0         0
         0         0         0         0         0         0         0         0
         0         0         0         0         0         0         0         0
         0         0         0         0         0         0         0         0
         0         0         0         0         0         0         0         0
         0         0         0         0         0         0         0         0
         0         0         0         0         0         0         0         0
         0         0         0         0         0         0         0         0
         0         0         0         0         0         0         0         0
         0         0         0         0         0         0         0         0
         0         0         0         0         0         0         0         0
         0         0         0         0         0         0         0         0
         0         0         0         0         0         0         0         0
         0         0         0         0         0         0         0         0
         0         0         0         0         0         0         0         0
         0         0         0         0         0         0         0         0
         0         0         0         0         0         0         0         0
         0         0         0         0         0         0         0         0
         0         0         0         0         0         0         0         0
         0         0         0         0         0         0         0         0
         0         0         0         0         0         0         0         0
         0         0         0         0         0         0         0         0
         0         0         0         0         0         0         0         0
         0         0         0         0         0         0         0         0
         0         0         0         0         0         0         0         0
         0         0         0         0         0         0         0         0
         0         0         0         0         0         0         0         0
         0         0         0         0         0         0         0         0
         0         0         0         0         0         0         0         0
         0         0         0         0         0         0         0         0
         0         0         0         0         0         0         0         0
         0         0         0         0         0         0         0         0
         0         0         0         0         0         0         0         0
         0         0         0         0         0         0         0         0
         0         0         0         0         0         0         0         0
         0         0         0         0         0         0         0         0
         0         0         0         0         0         0         0         0
         0         0         0         0         0         0         0         0
         0         0         0         0         0         0         0         0
         0         0         0         0         0         0         0         0
         0         0         0         0         0         0         0         0
         0         0         0         0         0         0         0         0
         0         0         0         0         0         0         0         0
         0         0         0         0         0         0         0         0
         0         0         0         0         0         0         0         0
         0         0         0         0         0         0         0         0
         0         0         0         0         0         0         0         0
         0         0         0         0         0         0         0         0
         0         0         0         0         0         0         0         0
         0         0         0         0         0         0         0         0
         0         0         0         0         0         0         0         0
         0         0         0         0         0         0         0         0
         0         0         0         0         0         0         0         0
         0         0         0         0         0         0         0         0
         0         0         0         0         0         0         0         0
         0         0         0         0         0         0         0         0
         0         0         0         0         0         0         0         0
         0         0         0         0         0         0         0         0
         0         0         0         0         0         0         0         0
         0         0         0         0         0         0         0         0
         0         0         0         0         0         0         0         0
         0         0         0         0         0         0         0         0
         0         0         0         0         0         0         0         0
         0         0         0         0         0         0         0         0
         0         0         0         0         0         0         0         0
         0         0         0         0         0         0         0         0
         0         0         0         0         0         0         0         0
         0         0         0         0         0         0         0         0
         0         0         0         0
     13802     13801     13803         0         1
     13805     13804     13806         0         1
     13808     13807     13809         0         1
     13811     13810     13812         0         1
     13814     13813     13815         0         1
     13817     13816     13818         0         1
     13820     13819     13821         0         1
     13823     13822     13824         0         1
     13826     13825     13827         0         1
     13829     13828     13830         0         1
     13832     13831     13833         0         1
     13835     13834     13836         0         1
     13838     13837     13839         0         1
     13841     13840     13842         0         1
     13844     13843     13845         0         1
     13847     13846     13848         0         1
     13850     13849     13851         0         1
     13853     13852     13854         0         1
     13856     13855     13857         0         1
     13859     13858     13860         0         1
     13862     13861     13863         0         1
     13865     13864     13866         0         1
     13868     13867     13869         0         1
     13871     13870     13872         0         1
     13874     13873     13875         0         1
     13877     13876     13878         0         1
     13880     13879     13881         0         1
     13883     13882     13884         0         1
     13886     13885     13887         0         1
     13889     13888     13890         0         1
     13892     13891     13893         0         1
     13895     13894     13896         0         1
     13898     13897     13899         0         1
     13901     13900     13902         0         1
     13904     13903     13905         0         1
     13907     13906     13908         0         1
     13910     13909     13911         0         1
     13913     13912     13914         0         1
     13916     13915     13917         0         1
     13919     13918     13920         0         1
     13922     13921     13923         0         1
     13925     13924     13926         0         1
     13928     13927     13929         0         1
     13931     13930     13932         0         1
     13934     13933     13935         0         1
     13937     13936     13938         0         1
     13940     13939     13941         0         1
     13943     13942     13944         0         1
     13946     13945     13947         0         1
     13949     13948     13950         0         1
     13952     13951     13953         0         1
     13955     13954     13956         0         1
     13958     13957     13959         0         1
     13961     13960     13962         0         1
     13964     13963     13965         0         1
     13967     13966     13968         0         1
     13970     13969     13971         0         1
     13973     13972     13974         0         1
     13976     13975     13977         0         1
     13979     13978     13980         0         1
     13982     13981     13983         0         1
     13985     13984     13986         0         1
     13988     13987     13989         0         1
     13991     13990     13992         0         1
     13994     13993     13995         0         1
     13997     13996     13998         0         1
     14000     13999     14001         0         1
     14003     14002     14004         0         1
     14006     14005     14007         0         1
     14009     14008     14010         0         1
     14012     14011     14013         0         1
     14015     14014     14016         0         1
     14018     14017     14019         0         1
     14021     14020     14022         0         1
     14024     14023     14025         0         1
     14027     14026     14028         0         1
     14030     14029     14031         0         1
     14033     14032     14034         0         1
     14036     14035     14037         0         1
     14039     14038     14040         0         1
     14042     14041     14043         0         1
     14045     14044     14046         0         1
     14048     14047     14049         0         1
     14051     14050     14052         0         1
     14054     14053     14055         0         1
     14057     14056     14058         0         1
     14060     14059     14061         0         1
     14063     14062     14064         0         1
     14066     14065     14067         0         1
     14069     14068     14070         0         1
     14072     14071     14073         0         1
     14075     14074     14076         0         1
     14078     14077     14079         0         1
     14081     14080     14082         0         1
     14084     14083     14085         0         1
     14087     14086     14088         0         1
     14090     14089     14091         0         1
     14093     14092     14094         0         1
     14096     14095     14097         0         1
     14099     14098     14100         0         1
     14102     14101     14103         0         1
     14105     14104     14106         0         1
     14108     14107     14109         0         1
     14111     14110     14112         0         1
     14114     14113     14115         0         1
     14117     14116     14118         0         1
     14120     14119     14121         0         1
     14123     14122     14124         0         1
     14126     14125     14127         0         1
     14129     14128     14130         0         1
     14132     14131     14133         0         1
     14135     14134     14136         0         1
     14138     14137     14139         0         1
     14141     14140     14142         0         1
     14144     14143     14145         0         1
     14147     14146     14148         0         1
     14150     14149     14151         0         1
     14153     14152     14154         0         1
     14156     14155     14157         0         1
     14159     14158     14160         0         1
     14162     14161     14163         0         1
     14165     14164     14166         0         1
     14168     14167     14169         0         1
     14171     14170     14172         0         1
     14174     14173     14175         0         1
     14177     14176     14178         0         1
     14180     14179     14181         0         1
     14183     14182     14184         0         1
     14186     14185     14187         0         1
     14189     14188     14190         0         1
     14192     14191     14193         0         1
     14195     14194     14196         0         1
     14198     14197     14199         0         1
     14201     14200     14202         0         1
     14204     14203     14205         0         1
     14207     14206     14208         0         1
     14210     14209     14211         0         1
     14213     14212     14214         0         1
     14216     14215     14217         0         1
     14219     14218     14220         0         1
     14222     14221     14223         0         1
     14225     14224     14226         0         1
     14228     14227     14229         0         1
     14231     14230     14232         0         1
     14234     14233     14235         0         1
     14237     14236     14238         0         1
     14240     14239     14241         0         1
     14243     14242     14244         0         1
     14246     14245     14247         0         1
     14249     14248     14250         0         1
     14252     14251     14253         0         1
     14255     14254     14256         0         1
     14258     14257     14259         0         1
     14261     14260     14262         0         1
     14264     14263     14265         0         1
     14267     14266     14268         0         1
     14270     14269     14271         0         1
     14273     14272     14274         0         1
     14276     14275     14277         0         1
     14279     14278     14280         0         1
     14282     14281     14283         0         1
     14285     14284     14286         0         1
     14288     14287     14289         0         1
     14291     14290     14292         0         1
     14294     14293     14295         0         1
     14297     14296     14298         0         1
     14300     14299     14301         0         1
     14303     14302     14304         0         1
     14306     14305     14307         0         1
     14309     14308     14310         0         1
     14312     14311     14313         0         1
     14315     14314     14316         0         1
     14318     14317     14319         0         1
     14321     14320     14322         0         1
     14324     14323     14325         0         1
     14327     14326     14328         0         1
     14330     14329     14331         0         1
     14333     14332     14334         0         1
     14336     14335     14337         0         1
     14339     14338     14340         0         1
     14342     14341     14343         0         1
     14345     14344     14346         0         1
     14348     14347     14349         0         1
     14351     14350     14352         0         1
     14354     14353     14355         0         1
     14357     14356     14358         0         1
     14360     14359     14361         0         1
     14363     14362     14364         0         1
     14366     14365     14367         0         1
     14369     14368     14370         0         1
     14372     14371     14373         0         1
     14375     14374     14376         0         1
     14378     14377     14379         0         1
     14381     14380     14382         0         1
     14384     14383     14385         0         1
     14387     14386     14388         0         1
     14390     14389     14391         0         1
     14393     14392     14394         0         1
     14396     14395     14397         0         1
     14399     14398     14400         0         1
     14402     14401     14403         0         1
     14405     14404     14406         0         1
     14408     14407     14409         0         1
     14411     14410     14412         0         1
     14414     14413     14415         0         1
     14417     14416     14418         0         1
     14420     14419     14421         0         1
     14423     14422     14424         0         1
     14426     14425     14427         0         1
     14429     14428     14430         0         1
     14432     14431     14433         0         1
     14435     14434     14436         0         1
     14438     14437     14439         0         1
     14441     14440     14442         0         1
     14444     14443     14445         0         1
     14447     14446     14448         0         1
     14450     14449     14451         0         1
     14453     14452     14454         0         1
     14456     14455     14457         0         1
     14459     14458     14460         0         1
     14462     14461     14463         0         1
     14465     14464     14466         0         1
     14468     14467     14469         0         1
     14471     14470     14472         0         1
     14474     14473     14475         0         1
     14477     14476     14478         0         1
     14480     14479     14481         0         1
     14483     14482     14484         0         1
     14486     14485     14487         0         1
     14489     14488     14490         0         1
     14492     14491     14493         0         1
     14495     14494     14496         0         1
     14498     14497     14499         0         1
     14501     14500     14502         0         1
     14504     14503     14505         0         1
     14507     14506     14508         0         1
     14510     14509     14511         0         1
     14513     14512     14514         0         1
     14516     14515     14517         0         1
     14519     14518     14520         0         1
     14522     14521     14523         0         1
     14525     14524     14526         0         1
     14528     14527     14529         0         1
     14531     14530     14532         0         1
     14534     14533     14535         0         1
     14537     14536     14538         0         1
     14540     14539     14541         0         1
     14543     14542     14544         0         1
     14546     14545     14547         0         1
     14549     14548     14550         0         1
     14552     14551     14553         0         1
     14555     14554     14556         0         1
     14558     14557     14559         0         1
     14561     14560     14562         0         1
     14564     14563     14565         0         1
     14567     14566     14568         0         1
     14570     14569     14571         0         1
     14573     14572     14574         0         1
     14576     14575     14577         0         1
     14579     14578     14580         0         1
     14582     14581     14583         0         1
     14585     14584     14586         0         1
     14588     14587     14589         0         1
     14591     14590     14592         0         1
     14594     14593     14595         0         1
     14597     14596     14598         0         1
     14600     14599     14601         0         1
     14603     14602     14604         0         1
     14606     14605     14607         0         1
     14609     14608     14610         0         1
     14612     14611     14613         0         1
     14615     14614     14616         0         1
     14618     14617     14619         0         1
     14621     14620     14622         0         1
     14624     14623     14625         0         1
     14627     14626     14628         0         1
     14630     14629     14631         0         1
     14633     14632     14634         0         1
     14636     14635     14637         0         1
     14639     14638     14640         0         1
     14642     14641     14643         0         1
     14645     14644     14646         0         1
     14648     14647     14649         0         1
     14651     14650     14652         0         1
     14654     14653     14655         0         1
     14657     14656     14658         0         1
     14660     14659     14661         0         1
     14663     14662     14664         0         1
     14666     14665     14667         0         1
     14669     14668     14670         0         1
     14672     14671     14673         0         1
     14675     14674     14676         0         1
     14678     14677     14679         0         1
     14681     14680     14682         0         1
     14684     14683     14685         0         1
     14687     14686     14688         0         1
     14690     14689     14691         0         1
     14693     14692     14694         0         1
     14696     14695     14697         0         1
     14699     14698     14700         0         1
     14702     14701     14703         0         1
     14705     14704     14706         0         1
     14708     14707     14709         0         1
     14711     14710     14712         0         1
     14714     14713     14715         0         1
     14717     14716     14718         0         1
     14720     14719     14721         0         1
     14723     14722     14724         0         1
     14726     14725     14727         0         1
     14729     14728     14730         0         1
     14732     14731     14733         0         1
     14735     14734     14736         0         1
     14738     14737     14739         0         1
     14741     14740     14742         0         1
     14744     14743     14745         0         1
     14747     14746     14748         0         1
     14750     14749     14751         0         1
     14753     14752     14754         0         1
     14756     14755     14757         0         1
     14759     14758     14760         0         1
     14762     14761     14763         0         1
     14765     14764     14766         0         1
     14768     14767     14769         0         1
     14771     14770     14772         0         1
     14774     14773     14775         0         1
     14777     14776     14778         0         1
     14780     14779     14781         0         1
     14783     14782     14784         0         1
     14786     14785     14787         0         1
     14789     14788     14790         0         1
     14792     14791     14793         0         1
     14795     14794     14796         0         1
     14798     14797     14799         0         1
     14801     14800     14802         0         1
     14804     14803     14805         0         1
     14807     14806     14808         0         1
     14810     14809     14811         0         1
     14813     14812     14814         0         1
     14816     14815     14817         0         1
     14819     14818     14820         0         1
     14822     14821     14823         0         1
     14825     14824     14826         0         1
     14828     14827     14829         0         1
     14831     14830     14832         0         1
     14834     14833     14835         0         1
     14837     14836     14838         0         1
     14840     14839     14841         0         1
     14843     14842     14844         0         1
     14846     14845     14847         0         1
     14849     14848     14850         0         1
     14852     14851     14853         0         1
     14855     14854     14856         0         1
     14858     14857     14859         0         1
     14861     14860     14862         0         1
     14864     14863     14865         0         1
     14867     14866     14868         0         1
     14870     14869     14871         0         1
     14873     14872     14874         0         1
     14876     14875     14877         0         1
     14879     14878     14880         0         1
     14882     14881     14883         0         1
     14885     14884     14886         0         1
     14888     14887     14889         0         1
     14891     14890     14892         0         1
     14894     14893     14895         0         1
     14897     14896     14898         0         1
     14900     14899     14901         0         1
     14903     14902     14904         0         1
     14906     14905     14907         0         1
     14909     14908     14910         0         1
     14912     14911     14913         0         1
     14915     14914     14916         0         1
     14918     14917     14919         0         1
     14921     14920     14922         0         1
     14924     14923     14925         0         1
     14927     14926     14928         0         1
     14930     14929     14931         0         1
     14933     14932     14934         0         1
     14936     14935     14937         0         1
     14939     14938     14940         0         1
     14942     14941     14943         0         1
     14945     14944     14946         0         1
     14948     14947     14949         0         1
     14951     14950     14952         0         1
     14954     14953     14955         0         1
     14957     14956     14958         0         1
     14960     14959     14961         0         1
     14963     14962     14964         0         1
     14966     14965     14967         0         1
     14969     14968     14970         0         1
     14972     14971     14973         0         1
     14975     14974     14976         0         1
     14978     14977     14979         0         1
     14981     14980     14982         0         1
     14984     14983     14985         0         1
     14987     14986     14988         0         1
     14990     14989     14991         0         1
     14993     14992     14994         0         1
     14996     14995     14997         0         1
     14999     14998     15000         0         1
     15002     15001     15003         0         1
     15005     15004     15006         0         1
     15008     15007     15009         0         1
     15011     15010     15012         0         1
     15014     15013     15015         0         1
     15017     15016     15018         0         1
     15020     15019     15021         0         1
     15023     15022     15024         0         1
     15026     15025     15027         0         1
     15029     15028     15030         0         1
     15032     15031     15033         0         1
     15035     15034     15036         0         1
     15038     15037     15039         0         1
     15041     15040     15042         0         1
     15044     15043     15045         0         1
     15047     15046     15048         0         1
     15050     15049     15051         0         1
     15053     15052     15054         0         1
     15056     15055     15057         0         1
     15059     15058     15060         0         1
     15062     15061     15063         0         1
     15065     15064     15066         0         1
     15068     15067     15069         0         1
     15071     15070     15072         0         1
     15074     15073     15075         0         1
     15077     15076     15078         0         1
     15080     15079     15081         0         1
     15083     15082     15084         0         1
     15086     15085     15087         0         1
     15089     15088     15090         0         1
     15092     15091     15093         0         1
     15095     15094     15096         0         1
     15098     15097     15099         0         1
     15101     15100     15102         0         1
     15104     15103     15105         0         1
     15107     15106     15108         0         1
     15110     15109     15111         0         1
     15113     15112     15114         0         1
     15116     15115     15117         0         1
     15119     15118     15120         0         1
     15122     15121     15123         0         1
     15125     15124     15126         0         1
     15128     15127     15129         0         1
     15131     15130     15132         0         1
     15134     15133     15135         0         1
     15137     15136     15138         0         1
     15140     15139     15141         0         1
     15143     15142     15144         0         1
     15146     15145     15147         0         1
     15149     15148     15150         0         1
     15152     15151     15153         0         1
     15155     15154     15156         0         1
     15158     15157     15159         0         1
     15161     15160     15162         0         1
     15164     15163     15165         0         1
     15167     15166     15168         0         1
     15170     15169     15171         0         1
     15173     15172     15174         0         1
     15176     15175     15177         0         1
     15179     15178     15180         0         1
     15182     15181     15183         0         1
     15185     15184     15186         0         1
     15188     15187     15189         0         1
     15191     15190     15192         0         1
     15194     15193     15195         0         1
     15197     15196     15198         0         1
     15200     15199     15201         0         1
     15203     15202     15204         0         1
     15206     15205     15207         0         1
     15209     15208     15210         0         1
     15212     15211     15213         0         1
     15215     15214     15216         0         1
     15218     15217     15219         0         1
     15221     15220     15222         0         1
     15224     15223     15225         0         1
     15227     15226     15228         0         1
     15230     15229     15231         0         1
     15233     15232     15234         0         1
     15236     15235     15237         0         1
     15239     15238     15240         0         1
     15242     15241     15243         0         1
     15245     15244     15246         0         1
     15248     15247     15249         0         1
     15251     15250     15252         0         1
     15254     15253     15255         0         1
     15257     15256     15258         0         1
     15260     15259     15261         0         1
     15263     15262     15264         0         1
     15266     15265     15267         0         1
     15269     15268     15270         0         1
     15272     15271     15273         0         1
     15275     15274     15276         0         1
     15278     15277     15279         0         1
     15281     15280     15282         0         1
     15284     15283     15285         0         1
     15287     15286     15288         0         1
     15290     15289     15291         0         1
     15293     15292     15294         0         1
     15296     15295     15297         0         1
     15299     15298     15300         0         1
     15302     15301     15303         0         1
     15305     15304     15306         0         1
     15308     15307     15309         0         1
     15311     15310     15312         0         1
     15314     15313     15315         0         1
     15317     15316     15318         0         1
     15320     15319     15321         0         1
     15323     15322     15324         0         1
     15326     15325     15327         0         1
     15329     15328     15330         0         1
     15332     15331     15333         0         1
     15335     15334     15336         0         1
     15338     15337     15339         0         1
     15341     15340     15342         0         1
     15344     15343     15345         0         1
     15347     15346     15348         0         1
     15350     15349     15351         0         1
     15353     15352     15354         0         1
     15356     15355     15357         0         1
     15359     15358     15360         0         1
     15362     15361     15363         0         1
     15365     15364     15366         0         1
     15368     15367     15369         0         1
     15371     15370     15372         0         1
     15374     15373     15375         0         1
     15377     15376     15378         0         1
     15380     15379     15381         0         1
     15383     15382     15384         0         1
     15386     15385     15387         0         1
     15389     15388     15390         0         1
     15392     15391     15393         0         1
     15395     15394     15396         0         1
     15398     15397     15399         0         1
     15401     15400     15402         0         1
     15404     15403     15405         0         1
     15407     15406     15408         0         1
     15410     15409     15411         0         1
     15413     15412     15414         0         1
     15416     15415     15417         0         1
     15419     15418     15420         0         1
     15422     15421     15423         0         1
     15425     15424     15426         0         1
     15428     15427     15429         0         1
     15431     15430     15432         0         1
     15434     15433     15435         0         1
     15437     15436     15438         0         1
     15440     15439     15441         0         1
     15443     15442     15444         0         1
     15446     15445     15447         0         1
     15449     15448     15450         0         1
     15452     15451     15453         0         1
     15455     15454     15456         0         1
     15458     15457     15459         0         1
     15461     15460     15462         0         1
     15464     15463     15465         0         1
     15467     15466     15468         0         1
     15470     15469     15471         0         1
     15473     15472     15474         0         1
     15476     15475     15477         0         1
     15479     15478     15480         0         1
     15482     15481     15483         0         1
     15485     15484     15486         0         1
     15488     15487     15489         0         1
     15491     15490     15492         0         1
     15494     15493     15495         0         1
     15497     15496     15498         0         1
     15500     15499     15501         0         1
     15503     15502     15504         0         1
     15506     15505     15507         0         1
     15509     15508     15510         0         1
     15512     15511     15513         0         1
     15515     15514     15516         0         1
     15518     15517     15519         0         1
     15521     15520     15522         0         1
     15524     15523     15525         0         1
     15527     15526     15528         0         1
     15530     15529     15531         0         1
     15533     15532     15534         0         1
     15536     15535     15537         0         1
     15539     15538     15540         0         1
     15542     15541     15543         0         1
     15545     15544     15546         0         1
     15548     15547     15549         0         1
     15551     15550     15552         0         1
     15554     15553     15555         0         1
     15557     15556     15558         0         1
     15560     15559     15561         0         1
     15563     15562     15564         0         1
     15566     15565     15567         0         1
     15569     15568     15570         0         1
     15572     15571     15573         0         1
     15575     15574     15576         0         1
     15578     15577     15579         0         1
     15581     15580     15582         0         1
     15584     15583     15585         0         1
     15587     15586     15588         0         1
     15590     15589     15591         0         1
     15593     15592     15594         0         1
     15596     15595     15597         0         1
     15599     15598     15600         0         1
     15602     15601     15603         0         1
     15605     15604     15606         0         1
     15608     15607     15609         0         1
     15611     15610     15612         0         1
     15614     15613     15615         0         1
     15617     15616     15618         0         1
     15620     15619     15621         0         1
     15623     15622     15624         0         1
     15626     15625     15627         0         1
     15629     15628     15630         0         1
     15632     15631     15633         0         1
     15635     15634     15636         0         1
     15638     15637     15639         0         1
     15641     15640     15642         0         1
     15644     15643     15645         0         1
     15647     15646     15648         0         1
     15650     15649     15651         0         1
     15653     15652     15654         0         1
     15656     15655     15657         0         1
     15659     15658     15660         0         1
     15662     15661     15663         0         1
     15665     15664     15666         0         1
     15668     15667     15669         0         1
     15671     15670     15672         0         1
     15674     15673     15675         0         1
     15677     15676     15678         0         1
     15680     15679     15681         0         1
     15683     15682     15684         0         1
     15686     15685     15687         0         1
     15689     15688     15690         0         1
     15692     15691     15693         0         1
     15695     15694     15696         0         1
     15698     15697     15699         0         1
     15701     15700     15702         0         1
     15704     15703     15705         0         1
     15707     15706     15708         0         1
     15710     15709     15711         0         1
     15713     15712     15714         0         1
     15716     15715     15717         0         1
     15719     15718     15720         0         1
     15722     15721     15723         0         1
     15725     15724     15726         0         1
     15728     15727     15729         0         1
     15731     15730     15732         0         1
     15734     15733     15735         0         1
     15737     15736     15738         0         1
     15740     15739     15741         0         1
     15743     15742     15744         0         1
     15746     15745     15747         0         1
     15749     15748     15750         0         1
     15752     15751     15753         0         1
     15755     15754     15756         0         1
     15758     15757     15759         0         1
     15761     15760     15762         0         1
     15764     15763     15765         0         1
     15767     15766     15768         0         1
     15770     15769     15771         0         1
     15773     15772     15774         0         1
     15776     15775     15777         0         1
     15779     15778     15780         0         1
     15782     15781     15783         0         1
     15785     15784     15786         0         1
     15788     15787     15789         0         1
     15791     15790     15792         0         1
     15794     15793     15795         0         1
     15797     15796     15798         0         1
     15800     15799     15801         0         1
     15803     15802     15804         0         1
     15806     15805     15807         0         1
     15809     15808     15810         0         1
     15812     15811     15813         0         1
     15815     15814     15816         0         1
     15818     15817     15819         0         1
     15821     15820     15822         0         1
     15824     15823     15825         0         1
     15827     15826     15828         0         1
     15830     15829     15831         0         1
     15833     15832     15834         0         1
     15836     15835     15837         0         1
     15839     15838     15840         0         1
     15842     15841     15843         0         1
     15845     15844     15846         0         1
     15848     15847     15849         0         1
     15851     15850     15852         0         1
     15854     15853     15855         0         1
     15857     15856     15858         0         1
     15860     15859     15861         0         1
     15863     15862     15864         0         1
     15866     15865     15867         0         1
     15869     15868     15870         0         1
     15872     15871     15873         0         1
     15875     15874     15876         0         1
     15878     15877     15879         0         1
     15881     15880     15882         0         1
     15884     15883     15885         0         1
     15887     15886     15888         0         1
     15890     15889     15891         0         1
     15893     15892     15894         0         1
     15896     15895     15897         0         1
     15899     15898     15900         0         1
     15902     15901     15903         0         1
     15905     15904     15906         0         1
     15908     15907     15909         0         1
     15911     15910     15912         0         1
     15914     15913     15915         0         1
     15917     15916     15918         0         1
     15920     15919     15921         0         1
     15923     15922     15924         0         1
     15926     15925     15927         0         1
     15929     15928     15930         0         1
     15932     15931     15933         0         1
     15935     15934     15936         0         1
     15938     15937     15939         0         1
     15941     15940     15942         0         1
     15944     15943     15945         0         1
     15947     15946     15948         0         1
     15950     15949     15951         0         1
     15953     15952     15954         0         1
     15956     15955     15957         0         1
     15959     15958     15960         0         1
     15962     15961     15963         0         1
     15965     15964     15966         0         1
     15968     15967     15969         0         1
     15971     15970     15972         0         1
     15974     15973     15975         0         1
     15977     15976     15978         0         1
     15980     15979     15981         0         1
     15983     15982     15984         0         1
     15986     15985     15987         0         1
     15989     15988     15990         0         1
     15992     15991     15993         0         1
     15995     15994     15996         0         1
     15998     15997     15999         0         1
     16001     16000     16002         0         1
     16004     16003     16005         0         1
     16007     16006     16008         0         1
     16010     16009     16011         0         1
     16013     16012     16014         0         1
     16016     16015     16017         0         1
     16019     16018     16020         0         1
     16022     16021     16023         0         1
     16025     16024     16026         0         1
     16028     16027     16029         0         1
     16031     16030     16032         0         1
     16034     16033     16035         0         1
     16037     16036     16038         0         1
     16040     16039     16041         0         1
     16043     16042     16044         0         1
     16046     16045     16047         0         1
     16049     16048     16050         0         1
     16052     16051     16053         0         1
     16055     16054     16056         0         1
     16058     16057     16059         0         1
     16061     16060     16062         0         1
     16064     16063     16065         0         1
     16067     16066     16068         0         1
     16070     16069     16071         0         1
     16073     16072     16074         0         1
     16076     16075     16077         0         1
     16079     16078     16080         0         1
     16082     16081     16083         0         1
     16085     16084     16086         0         1
     16088     16087     16089         0         1
     16091     16090     16092         0         1
     16094     16093     16095         0         1
     16097     16096     16098         0         1
     16100     16099     16101         0         1
     16103     16102     16104         0         1
     16106     16105     16107         0         1
     16109     16108     16110         0         1
     16112     16111     16113         0         1
     16115     16114     16116         0         1
     16118     16117     16119         0         1
     16121     16120     16122         0         1
     16124     16123     16125         0         1
     16127     16126     16128         0         1
     16130     16129     16131         0         1
     16133     16132     16134         0         1
     16136     16135     16137         0         1
     16139     16138     16140         0         1
     16142     16141     16143         0         1
     16145     16144     16146         0         1
     16148     16147     16149         0         1
     16151     16150     16152         0         1
     16154     16153     16155         0         1
     16157     16156     16158         0         1
     16160     16159     16161         0         1
     16163     16162     16164         0         1
     16166     16165     16167         0         1
     16169     16168     16170         0         1
     16172     16171     16173         0         1
     16175     16174     16176         0         1
     16178     16177     16179         0         1
     16181     16180     16182         0         1
     16184     16183     16185         0         1
     16187     16186     16188         0         1
     16190     16189     16191         0         1
     16193     16192     16194         0         1
     16196     16195     16197         0         1
     16199     16198     16200         0         1
     16202     16201     16203         0         1
     16205     16204     16206         0         1
     16208     16207     16209         0         1
     16211     16210     16212         0         1
     16214     16213     16215         0         1
     16217     16216     16218         0         1
     16220     16219     16221         0         1
     16223     16222     16224         0         1
     16226     16225     16227         0         1
     16229     16228     16230         0         1
     16232     16231     16233         0         1
     16235     16234     16236         0         1
     16238     16237     16239         0         1
     16241     16240     16242         0         1
     16244     16243     16245         0         1
     16247     16246     16248         0         1
     16250     16249     16251         0         1
     16253     16252     16254         0         1
     16256     16255     16257         0         1
     16259     16258     16260         0         1
     16262     16261     16263         0         1
     16265     16264     16266         0         1
     16268     16267     16269         0         1
     16271     16270     16272         0         1
     16274     16273     16275         0         1
     16277     16276     16278         0         1
     16280     16279     16281         0         1
     16283     16282     16284         0         1
     16286     16285     16287         0         1
     16289     16288     16290         0         1
     16292     16291     16293         0         1
     16295     16294     16296         0         1
     16298     16297     16299         0         1
     16301     16300     16302         0         1
     16304     16303     16305         0         1
     16307     16306     16308         0         1
     16310     16309     16311         0         1
     16313     16312     16314         0         1
     16316     16315     16317         0         1
     16319     16318     16320         0         1
     16322     16321     16323         0         1
     16325     16324     16326         0         1
     16328     16327     16329         0         1
     16331     16330     16332         0         1
     16334     16333     16335         0         1
     16337     16336     16338         0         1
     16340     16339     16341         0         1
     16343     16342     16344         0         1
     16346     16345     16347         0         1
     16349     16348     16350         0         1
     16352     16351     16353         0         1
     16355     16354     16356         0         1
     16358     16357     16359         0         1
     16361     16360     16362         0         1
     16364     16363     16365         0         1
     16367     16366     16368         0         1
     16370     16369     16371         0         1
     16373     16372     16374         0         1
     16376     16375     16377         0         1
     16379     16378     16380         0         1
     16382     16381     16383         0         1
     16385     16384     16386         0         1
     16388     16387     16389         0         1
     16391     16390     16392         0         1
     16394     16393     16395         0         1
     16397     16396     16398         0         1
     16400     16399     16401         0         1
     16403     16402     16404         0         1
     16406     16405     16407         0         1
     16409     16408     16410         0         1
     16412     16411     16413         0         1
     16415     16414     16416         0         1
     16418     16417     16419         0         1
     16421     16420     16422         0         1
     16424     16423     16425         0         1
     16427     16426     16428         0         1
     16430     16429     16431         0         1
     16433     16432     16434         0         1
     16436     16435     16437         0         1
     16439     16438     16440         0         1
     16442     16441     16443         0         1
     16445     16444     16446         0         1
     16448     16447     16449         0         1
     16451     16450     16452         0         1
     16454     16453     16455         0         1
     16457     16456     16458         0         1
     16460     16459     16461         0         1
     16463     16462     16464         0         1
     16466     16465     16467         0         1
     16469     16468     16470         0         1
     16472     16471     16473         0         1
     16475     16474     16476         0         1
     16478     16477     16479         0         1
     16481     16480     16482         0         1
     16484     16483     16485         0         1
     16487     16486     16488         0         1
     16490     16489     16491         0         1
     16493     16492     16494         0         1
     16496     16495     16497         0         1
     16499     16498     16500         0         1
     16502     16501     16503         0         1
     16505     16504     16506         0         1
     16508     16507     16509         0         1
     16511     16510     16512         0         1
     16514     16513     16515         0         1
     16517     16516     16518         0         1
     16520     16519     16521         0         1
     16523     16522     16524         0         1
     16526     16525     16527         0         1
     16529     16528     16530         0         1
     16532     16531     16533         0         1
     16535     16534     16536         0         1
     16538     16537     16539         0         1
     16541     16540     16542         0         1
     16544     16543     16545         0         1
     16547     16546     16548         0         1
     16550     16549     16551         0         1
     16553     16552     16554         0         1
     16556     16555     16557         0         1
     16559     16558     16560         0         1
     16562     16561     16563         0         1
     16565     16564     16566         0         1
     16568     16567     16569         0         1
     16571     16570     16572         0         1
     16574     16573     16575         0         1
     16577     16576     16578         0         1
     16580     16579     16581         0         1
     16583     16582     16584         0         1
     16586     16585     16587         0         1
     16589     16588     16590         0         1
     16592     16591     16593         0         1
     16595     16594     16596         0         1
     16598     16597     16599         0         1
     16601     16600     16602         0         1
     16604     16603     16605         0         1
     16607     16606     16608         0         1
     16610     16609     16611         0         1
     16613     16612     16614         0         1
     16616     16615     16617         0         1
     16619     16618     16620         0         1
     16622     16621     16623         0         1
     16625     16624     16626         0         1
     16628     16627     16629         0         1
     16631     16630     16632         0         1
     16634     16633     16635         0         1
     16637     16636     16638         0         1
     16640     16639     16641         0         1
     16643     16642     16644         0         1
     16646     16645     16647         0         1
     16649     16648     16650         0         1
     16652     16651     16653         0         1
     16655     16654     16656         0         1
     16658     16657     16659         0         1
     16661     16660     16662         0         1
     16664     16663     16665         0         1
     16667     16666     16668         0         1
     16670     16669     16671         0         1
     16673     16672     16674         0         1
     16676     16675     16677         0         1
     16679     16678     16680         0         1
     16682     16681     16683         0         1
     16685     16684     16686         0         1
     16688     16687     16689         0         1
     16691     16690     16692         0         1
     16694     16693     16695         0         1
     16697     16696     16698         0         1
     16700     16699     16701         0         1
     16703     16702     16704         0         1
     16706     16705     16707         0         1
     16709     16708     16710         0         1
     16712     16711     16713         0         1
     16715     16714     16716         0         1
     16718     16717     16719         0         1
     16721     16720     16722         0         1
     16724     16723     16725         0         1
     16727     16726     16728         0         1
     16730     16729     16731         0         1
     16733     16732     16734         0         1
     16736     16735     16737         0         1
     16739     16738     16740         0         1
     16742     16741     16743         0         1
     16745     16744     16746         0         1
     16748     16747     16749         0         1
     16751     16750     16752         0         1
     16754     16753     16755         0         1
     16757     16756     16758         0         1
     16760     16759     16761         0         1
     16763     16762     16764         0         1
     16766     16765     16767         0         1
     16769     16768     16770         0         1
     16772     16771     16773         0         1
     16775     16774     16776         0         1
     16778     16777     16779         0         1
     16781     16780     16782         0         1
     16784     16783     16785         0         1
     16787     16786     16788         0         1
     16790     16789     16791         0         1
     16793     16792     16794         0         1
     16796     16795     16797         0         1
     16799     16798     16800         0         1
     16802     16801     16803         0         1
     16805     16804     16806         0         1
     16808     16807     16809         0         1
     16811     16810     16812         0         1
     16814     16813     16815         0         1
     16817     16816     16818         0         1
     16820     16819     16821         0         1
     16823     16822     16824         0         1
     16826     16825     16827         0         1
     16829     16828     16830         0         1
     16832     16831     16833         0         1
     16835     16834     16836         0         1
     16838     16837     16839         0         1
     16841     16840     16842         0         1
     16844     16843     16845         0         1
     16847     16846     16848         0         1
     16850     16849     16851         0         1
     16853     16852     16854         0         1
     16856     16855     16857         0         1
     16859     16858     16860         0         1
     16862     16861     16863         0         1
     16865     16864     16866         0         1
     16868     16867     16869         0         1
     16871     16870     16872         0         1
     16874     16873     16875         0         1
     16877     16876     16878         0         1
     16880     16879     16881         0         1
     16883     16882     16884         0         1
     16886     16885     16887         0         1
     16889     16888     16890         0         1
     16892     16891     16893         0         1
     16895     16894     16896         0         1
     16898     16897     16899         0         1
     16901     16900     16902         0         1
     16904     16903     16905         0         1
     16907     16906     16908         0         1
     16910     16909     16911         0         1
     16913     16912     16914         0         1
     16916     16915     16917         0         1
     16919     16918     16920         0         1
     16922     16921     16923         0         1
     16925     16924     16926         0         1
     16928     16927     16929         0         1
     16931     16930     16932         0         1
     16934     16933     16935         0         1
     16937     16936     16938         0         1
     16940     16939     16941         0         1
     16943     16942     16944         0         1
     16946     16945     16947         0         1
     16949     16948     16950         0         1
     16952     16951     16953         0         1
     16955     16954     16956         0         1
     16958     16957     16959         0         1
     16961     16960     16962         0         1
     16964     16963     16965         0         1
     16967     16966     16968         0         1
     16970     16969     16971         0         1
     16973     16972     16974         0         1
     16976     16975     16977         0         1
     16979     16978     16980         0         1
     16982     16981     16983         0         1
     16985     16984     16986         0         1
     16988     16987     16989         0         1
     16991     16990     16992         0         1
     16994     16993     16995         0         1
     16997     16996     16998         0         1
     17000     16999     17001         0         1
     17003     17002     17004         0         1
     17006     17005     17007         0         1
     17009     17008     17010         0         1
     17012     17011     17013         0         1
     17015     17014     17016         0         1
     17018     17017     17019         0         1
     17021     17020     17022         0         1
     17024     17023     17025         0         1
     17027     17026     17028         0         1
     17030     17029     17031         0         1
     17033     17032     17034         0         1
     17036     17035     17037         0         1
     17039     17038     17040         0         1
     17042     17041     17043         0         1
     17045     17044     17046         0         1
     17048     17047     17049         0         1
     17051     17050     17052         0         1
     17054     17053     17055         0         1
     17057     17056     17058         0         1
     17060     17059     17061         0         1
     17063     17062     17064         0         1
     17066     17065     17067         0         1
     17069     17068     17070         0         1
     17072     17071     17073         0         1
     17075     17074     17076         0         1
     17078     17077     17079         0         1
     17081     17080     17082         0         1
     17084     17083     17085         0         1
     17087     17086     17088         0         1
     17090     17089     17091         0         1
     17093     17092     17094         0         1
     17096     17095     17097         0         1
     17099     17098     17100         0         1
     17102     17101     17103         0         1
     17105     17104     17106         0         1
     17108     17107     17109         0         1
     17111     17110     17112         0         1
     17114     17113     17115         0         1
     17117     17116     17118         0         1
     17120     17119     17121         0         1
     17123     17122     17124         0         1
     17126     17125     17127         0         1
     17129     17128     17130         0         1
     17132     17131     17133         0         1
     17135     17134     17136         0         1
     17138     17137     17139         0         1
     17141     17140     17142         0         1
     17144     17143     17145         0         1
     17147     17146     17148         0         1
     17150     17149     17151         0         1
     17153     17152     17154         0         1
     17156     17155     17157         0         1
     17159     17158     17160         0         1
     17162     17161     17163         0         1
     17165     17164     17166         0         1
     17168     17167     17169         0         1
     17171     17170     17172         0         1
     17174     17173     17175         0         1
     17177     17176     17178         0         1
     17180     17179     17181         0         1
     17183     17182     17184         0         1
     17186     17185     17187         0         1
     17189     17188     17190         0         1
     17192     17191     17193         0         1
     17195     17194     17196         0         1
     17198     17197     17199         0         1
     17201     17200     17202         0         1
     17204     17203     17205         0         1
     17207     17206     17208         0         1
     17210     17209     17211         0         1
     17213     17212     17214         0         1
     17216     17215     17217         0         1
     17219     17218     17220         0         1
     17222     17221     17223         0         1
     17225     17224     17226         0         1
     17228     17227     17229         0         1
     17231     17230     17232         0         1
     17234     17233     17235         0         1
     17237     17236     17238         0         1
     17240     17239     17241         0         1
     17243     17242     17244         0         1
     17246     17245     17247         0         1
     17249     17248     17250         0         1
     17252     17251     17253         0         1
     17255     17254     17256         0         1
     17258     17257     17259         0         1
     17261     17260     17262         0         1
     17264     17263     17265         0         1
     17267     17266     17268         0         1
     17270     17269     17271         0         1
     17273     17272     17274         0         1
     17276     17275     17277         0         1
     17279     17278     17280         0         1
     17282     17281     17283         0         1
     17285     17284     17286         0         1
     17288     17287     17289         0         1
     17291     17290     17292         0         1
     17294     17293     17295         0         1
     17297     17296     17298         0         1
     17300     17299     17301         0         1
     17303     17302     17304         0         1
     17306     17305     17307         0         1
     17309     17308     17310         0         1
     17312     17311     17313         0         1
     17315     17314     17316         0         1
     17318     17317     17319         0         1
     17321     17320     17322         0         1
     17324     17323     17325         0         1
     17327     17326     17328         0         1
     17330     17329     17331         0         1
     17333     17332     17334         0         1
     17336     17335     17337         0         1
     17339     17338     17340         0         1
     17342     17341     17343         0         1
     17345     17344     17346         0         1
     17348     17347     17349         0         1
     17351     17350     17352         0         1
     17354     17353     17355         0         1
     17357     17356     17358         0         1
     17360     17359     17361         0         1
     17363     17362     17364         0         1
     17366     17365     17367         0         1
     17369     17368     17370         0         1
     17372     17371     17373         0         1
     17375     17374     17376         0         1
     17378     17377     17379         0         1
     17381     17380     17382         0         1
     17384     17383     17385         0         1
     17387     17386     17388         0         1
     17390     17389     17391         0         1
     17393     17392     17394         0         1
     17396     17395     17397         0         1
     17399     17398     17400         0         1
     17402     17401     17403         0         1
     17405     17404     17406         0         1
     17408     17407     17409         0         1
     17411     17410     17412         0         1
     17414     17413     17415         0         1
     17417     17416     17418         0         1
     17420     17419     17421         0         1
     17423     17422     17424         0         1
     17426     17425     17427         0         1
     17429     17428     17430         0         1
     17432     17431     17433         0         1
     17435     17434     17436         0         1
     17438     17437     17439         0         1
     17441     17440     17442         0         1
     17444     17443     17445         0         1
     17447     17446     17448         0         1
     17450     17449     17451         0         1
     17453     17452     17454         0         1
     17456     17455     17457         0         1
     17459     17458     17460         0         1
     17462     17461     17463         0         1
     17465     17464     17466         0         1
     17468     17467     17469         0         1
     17471     17470     17472         0         1
     17474     17473     17475         0         1
     17477     17476     17478         0         1
     17480     17479     17481         0         1
     17483     17482     17484         0         1
     17486     17485     17487         0         1
     17489     17488     17490         0         1
     17492     17491     17493         0         1
     17495     17494     17496         0         1
     17498     17497     17499         0         1
     17501     17500     17502         0         1
     17504     17503     17505         0         1
     17507     17506     17508         0         1
     17510     17509     17511         0         1
     17513     17512     17514         0         1
     17516     17515     17517         0         1
     17519     17518     17520         0         1
     17522     17521     17523         0         1
     17525     17524     17526         0         1
     17528     17527     17529         0         1
     17531     17530     17532         0         1
     17534     17533     17535         0         1
     17537     17536     17538         0         1
     17540     17539     17541         0         1
     17543     17542     17544         0         1
     17546     17545     17547         0         1
     17549     17548     17550         0         1
     17552     17551     17553         0         1
     17555     17554     17556         0         1
     17558     17557     17559         0         1
     17561     17560     17562         0         1
     17564     17563     17565         0         1
     17567     17566     17568         0         1
     17570     17569     17571         0         1
     17573     17572     17574         0         1
     17576     17575     17577         0         1
     17579     17578     17580         0         1
     17582     17581     17583         0         1
     17585     17584     17586         0         1
     17588     17587     17589         0         1
     17591     17590     17592         0         1
     17594     17593     17595         0         1
     17597     17596     17598         0         1
     17600     17599     17601         0         1
     17603     17602     17604         0         1
     17606     17605     17607         0         1
     17609     17608     17610         0         1
     17612     17611     17613         0         1
     17615     17614     17616         0         1
     17618     17617     17619         0         1
     17621     17620     17622         0         1
     17624     17623     17625         0         1
     17627     17626     17628         0         1
     17630     17629     17631         0         1
     17633     17632     17634         0         1
     17636     17635     17637         0         1
     17639     17638     17640         0         1
     17642     17641     17643         0         1
     17645     17644     17646         0         1
     17648     17647     17649         0         1
     17651     17650     17652         0         1
     17654     17653     17655         0         1
     17657     17656     17658         0         1
     17660     17659     17661         0         1
     17663     17662     17664         0         1
     17666     17665     17667         0         1
     17669     17668     17670         0         1
     17672     17671     17673         0         1
     17675     17674     17676         0         1
     17678     17677     17679         0         1
     17681     17680     17682         0         1
     17684     17683     17685         0         1
     17687     17686     17688         0         1
     17690     17689     17691         0         1
     17693     17692     17694         0         1
     17696     17695     17697         0         1
     17699     17698     17700         0         1
     17702     17701     17703         0         1
     17705     17704     17706         0         1
     17708     17707     17709         0         1
     17711     17710     17712         0         1
     17714     17713     17715         0         1
     17717     17716     17718         0         1
     17720     17719     17721         0         1
     17723     17722     17724         0         1
     17726     17725     17727         0         1
     17729     17728     17730         0         1
     17732     17731     17733         0         1
     17735     17734     17736         0         1
     17738     17737     17739         0         1
     17741     17740     17742         0         1
     17744     17743     17745         0         1
     17747     17746     17748         0         1
     17750     17749     17751         0         1
     17753     17752     17754         0         1
     17756     17755     17757         0         1
     17759     17758     17760         0         1
     17762     17761     17763         0         1
     17765     17764     17766         0         1
     17768     17767     17769         0         1
     17771     17770     17772         0         1
     17774     17773     17775         0         1
     17777     17776     17778         0         1
     17780     17779     17781         0         1
     17783     17782     17784         0         1
     17786     17785     17787         0         1
     17789     17788     17790         0         1
     17792     17791     17793         0         1
     17795     17794     17796         0         1
     17798     17797     17799         0         1
     17801     17800     17802         0         1
     17804     17803     17805         0         1
     17807     17806     17808         0         1
     17810     17809     17811         0         1
     17813     17812     17814         0         1
     17816     17815     17817         0         1
     17819     17818     17820         0         1
     17822     17821     17823         0         1
     17825     17824     17826         0         1
     17828     17827     17829         0         1
     17831     17830     17832         0         1
     17834     17833     17835         0         1
     17837     17836     17838         0         1
     17840     17839     17841         0         1
     17843     17842     17844         0         1
     17846     17845     17847         0         1
     17849     17848     17850         0         1
     17852     17851     17853         0         1
     17855     17854     17856         0         1
     17858     17857     17859         0         1
     17861     17860     17862         0         1
     17864     17863     17865         0         1
     17867     17866     17868         0         1
     17870     17869     17871         0         1
     17873     17872     17874         0         1
     17876     17875     17877         0         1
     17879     17878     17880         0         1
     17882     17881     17883         0         1
     17885     17884     17886         0         1
     17888     17887     17889         0         1
     17891     17890     17892         0         1
     17894     17893     17895         0         1
     17897     17896     17898         0         1
     17900     17899     17901         0         1
     17903     17902     17904         0         1
     17906     17905     17907         0         1
     17909     17908     17910         0         1
     17912     17911     17913         0         1
     17915     17914     17916         0         1
     17918     17917     17919         0         1
     17921     17920     17922         0         1
     17924     17923     17925         0         1
     17927     17926     17928         0         1
     17930     17929     17931         0         1
     17933     17932     17934         0         1
     17936     17935     17937         0         1
     17939     17938     17940         0         1
     17942     17941     17943         0         1
     17945     17944     17946         0         1
     17948     17947     17949         0         1
     17951     17950     17952         0         1
     17954     17953     17955         0         1
     17957     17956     17958         0         1
     17960     17959     17961         0         1
     17963     17962     17964         0         1
     17966     17965     17967         0         1
     17969     17968     17970         0         1
     17972     17971     17973         0         1
     17975     17974     17976         0         1
     17978     17977     17979         0         1
     17981     17980     17982         0         1
     17984     17983     17985         0         1
     17987     17986     17988         0         1
     17990     17989     17991         0         1
     17993     17992     17994         0         1
     17996     17995     17997         0         1
     17999     17998     18000         0         1
     18002     18001     18003         0         1
     18005     18004     18006         0         1
     18008     18007     18009         0         1
     18011     18010     18012         0         1
     18014     18013     18015         0         1
     18017     18016     18018         0         1
     18020     18019     18021         0         1
     18023     18022     18024         0         1
     18026     18025     18027         0         1
     18029     18028     18030         0         1
     18032     18031     18033         0         1
     18035     18034     18036         0         1
     18038     18037     18039         0         1
     18041     18040     18042         0         1
     18044     18043     18045         0         1
     18047     18046     18048         0         1
     18050     18049     18051         0         1
     18053     18052     18054         0         1
     18056     18055     18057         0         1
     18059     18058     18060         0         1
     18062     18061     18063         0         1
     18065     18064     18066         0         1
     18068     18067     18069         0         1
     18071     18070     18072         0         1
     18074     18073     18075         0         1
     18077     18076     18078         0         1
     18080     18079     18081         0         1
     18083     18082     18084         0         1
     18086     18085     18087         0         1
     18089     18088     18090         0         1
     18092     18091     18093         0         1
     18095     18094     18096         0         1
     18098     18097     18099         0         1
     18101     18100     18102         0         1
     18104     18103     18105         0         1
     18107     18106     18108         0         1
     18110     18109     18111         0         1
     18113     18112     18114         0         1
     18116     18115     18117         0         1
     18119     18118     18120         0         1
     18122     18121     18123         0         1
     18125     18124     18126         0         1
     18128     18127     18129         0         1
     18131     18130     18132         0         1
     18134     18133     18135         0         1
     18137     18136     18138         0         1
     18140     18139     18141         0         1
     18143     18142     18144         0         1
     18146     18145     18147         0         1
     18149     18148     18150         0         1
     18152     18151     18153         0         1
     18155     18154     18156         0         1
     18158     18157     18159         0         1
     18161     18160     18162         0         1
     18164     18163     18165         0         1
     18167     18166     18168         0         1
     18170     18169     18171         0         1
     18173     18172     18174         0         1
     18176     18175     18177         0         1
     18179     18178     18180         0         1
     18182     18181     18183         0         1
     18185     18184     18186         0         1
     18188     18187     18189         0         1
     18191     18190     18192         0         1
     18194     18193     18195         0         1
     18197     18196     18198         0         1
     18200     18199     18201         0         1
     18203     18202     18204         0         1
     18206     18205     18207         0         1
     18209     18208     18210         0         1
     18212     18211     18213         0         1
     18215     18214     18216         0         1
     18218     18217     18219         0         1
     18221     18220     18222         0         1
     18224     18223     18225         0         1
     18227     18226     18228         0         1
     18230     18229     18231         0         1
     18233     18232     18234         0         1
     18236     18235     18237         0         1
     18239     18238     18240         0         1
     18242     18241     18243         0         1
     18245     18244     18246         0         1
     18248     18247     18249         0         1
     18251     18250     18252         0         1
     18254     18253     18255         0         1
     18257     18256     18258         0         1
     18260     18259     18261         0         1
     18263     18262     18264         0         1
     18266     18265     18267         0         1
     18269     18268     18270         0         1
     18272     18271     18273         0         1
     18275     18274     18276         0         1
     18278     18277     18279         0         1
     18281     18280     18282         0         1
     18284     18283     18285         0         1
     18287     18286     18288         0         1
     18290     18289     18291         0         1
     18293     18292     18294         0         1
     18296     18295     18297         0         1
     18299     18298     18300         0         1
     18302     18301     18303         0         1
     18305     18304     18306         0         1
     18308     18307     18309         0         1
     18311     18310     18312         0         1
     18314     18313     18315         0         1
     18317     18316     18318         0         1
     18320     18319     18321         0         1
     18323     18322     18324         0         1
     18326     18325     18327         0         1
     18329     18328     18330         0         1
     18332     18331     18333         0         1
     18335     18334     18336         0         1
     18338     18337     18339         0         1
     18341     18340     18342         0         1
     18344     18343     18345         0         1
     18347     18346     18348         0         1
     18350     18349     18351         0         1
     18353     18352     18354         0         1
     18356     18355     18357         0         1
     18359     18358     18360         0         1
     18362     18361     18363         0         1
     18365     18364     18366         0         1
     18368     18367     18369         0         1
     18371     18370     18372         0         1
     18374     18373     18375         0         1
     18377     18376     18378         0         1
     18380     18379     18381         0         1
     18383     18382     18384         0         1
     18386     18385     18387         0         1
     18389     18388     18390         0         1
     18392     18391     18393         0         1
     18395     18394     18396         0         1
     18398     18397     18399         0         1
     18401     18400     18402         0         1
     18404     18403     18405         0         1
     18407     18406     18408         0         1
     18410     18409     18411         0         1
     18413     18412     18414         0         1
     18416     18415     18417         0         1
     18419     18418     18420         0         1
     18422     18421     18423         0         1
     18425     18424     18426         0         1
     18428     18427     18429         0         1
     18431     18430     18432         0         1
     18434     18433     18435         0         1
     18437     18436     18438         0         1
     18440     18439     18441         0         1
     18443     18442     18444         0         1
     18446     18445     18447         0         1
     18449     18448     18450         0         1
     18452     18451     18453         0         1
     18455     18454     18456         0         1
     18458     18457     18459         0         1
     18461     18460     18462         0         1
     18464     18463     18465         0         1
     18467     18466     18468         0         1
     18470     18469     18471         0         1
     18473     18472     18474         0         1
     18476     18475     18477         0         1
     18479     18478     18480         0         1
     18482     18481     18483         0         1
     18485     18484     18486         0         1
     18488     18487     18489         0         1
     18491     18490     18492         0         1
     18494     18493     18495         0         1
     18497     18496     18498         0         1
     18500     18499     18501         0         1
     18503     18502     18504         0         1
     18506     18505     18507         0         1
     18509     18508     18510         0         1
     18512     18511     18513         0         1
     18515     18514     18516         0         1
     18518     18517     18519         0         1
     18521     18520     18522         0         1
     18524     18523     18525         0         1
     18527     18526     18528         0         1
     18530     18529     18531         0         1
     18533     18532     18534         0         1
     18536     18535     18537         0         1
     18539     18538     18540         0         1
     18542     18541     18543         0         1
     18545     18544     18546         0         1
     18548     18547     18549         0         1
     18551     18550     18552         0         1
     18554     18553     18555         0         1
     18557     18556     18558         0         1
     18560     18559     18561         0         1
     18563     18562     18564         0         1
     18566     18565     18567         0         1
     18569     18568     18570         0         1
     18572     18571     18573         0         1
     18575     18574     18576         0         1
     18578     18577     18579         0         1
     18581     18580     18582         0         1
     18584     18583     18585         0         1
     18587     18586     18588         0         1
     18590     18589     18591         0         1
     18593     18592     18594         0         1
     18596     18595     18597         0         1
     18599     18598     18600         0         1
     18602     18601     18603         0         1
     18605     18604     18606         0         1
     18608     18607     18609         0         1
     18611     18610     18612         0         1
     18614     18613     18615         0         1
     18617     18616     18618         0         1
     18620     18619     18621         0         1
     18623     18622     18624         0         1
     18626     18625     18627         0         1
     18629     18628     18630         0         1
     18632     18631     18633         0         1
     18635     18634     18636         0         1
     18638     18637     18639         0         1
     18641     18640     18642         0         1
     18644     18643     18645         0         1
     18647     18646     18648         0         1
     18650     18649     18651         0         1
     18653     18652     18654         0         1
     18656     18655     18657         0         1
     18659     18658     18660         0         1
     18662     18661     18663         0         1
     18665     18664     18666         0         1
     18668     18667     18669         0         1
     18671     18670     18672         0         1
     18674     18673     18675         0         1
     18677     18676     18678         0         1
     18680     18679     18681         0         1
     18683     18682     18684         0         1
     18686     18685     18687         0         1
     18689     18688     18690         0         1
     18692     18691     18693         0         1
     18695     18694     18696         0         1
     18698     18697     18699         0         1
     18701     18700     18702         0         1
     18704     18703     18705         0         1
     18707     18706     18708         0         1
     18710     18709     18711         0         1
     18713     18712     18714         0         1
     18716     18715     18717         0         1
     18719     18718     18720         0         1
     18722     18721     18723         0         1
     18725     18724     18726         0         1
     18728     18727     18729         0         1
     18731     18730     18732         0         1
     18734     18733     18735         0         1
     18737     18736     18738         0         1
     18740     18739     18741         0         1
     18743     18742     18744         0         1
     18746     18745     18747         0         1
     18749     18748     18750         0         1
     18752     18751     18753         0         1
     18755     18754     18756         0         1
     18758     18757     18759         0         1
     18761     18760     18762         0         1
     18764     18763     18765         0         1
     18767     18766     18768         0         1
     18770     18769     18771         0         1
     18773     18772     18774         0         1
     18776     18775     18777         0         1
     18779     18778     18780         0         1
     18782     18781     18783         0         1
     18785     18784     18786         0         1
     18788     18787     18789         0         1
     18791     18790     18792         0         1
     18794     18793     18795         0         1
     18797     18796     18798         0         1
     18800     18799     18801         0         1
     18803     18802     18804         0         1
     18806     18805     18807         0         1
     18809     18808     18810         0         1
     18812     18811     18813         0         1
     18815     18814     18816         0         1
     18818     18817     18819         0         1
     18821     18820     18822         0         1
     18824     18823     18825         0         1
     18827     18826     18828         0         1
     18830     18829     18831         0         1
     18833     18832     18834         0         1
     18836     18835     18837         0         1
     18839     18838     18840         0         1
     18842     18841     18843         0         1
     18845     18844     18846         0         1
     18848     18847     18849         0         1
     18851     18850     18852         0         1
     18854     18853     18855         0         1
     18857     18856     18858         0         1
     18860     18859     18861         0         1
     18863     18862     18864         0         1
     18866     18865     18867         0         1
     18869     18868     18870         0         1
     18872     18871     18873         0         1
     18875     18874     18876         0         1
     18878     18877     18879         0         1
     18881     18880     18882         0         1
     18884     18883     18885         0         1
     18887     18886     18888         0         1
     18890     18889     18891         0         1
     18893     18892     18894         0         1
     18896     18895     18897         0         1
     18899     18898     18900         0         1
     18902     18901     18903         0         1
     18905     18904     18906         0         1
     18908     18907     18909         0         1
     18911     18910     18912         0         1
     18914     18913     18915         0         1
     18917     18916     18918         0         1
     18920     18919     18921         0         1
     18923     18922     18924         0         1
     18926     18925     18927         0         1
     18929     18928     18930         0         1
     18932     18931     18933         0         1
     18935     18934     18936         0         1
     18938     18937     18939         0         1
     18941     18940     18942         0         1
     18944     18943     18945         0         1
     18947     18946     18948         0         1
     18950     18949     18951         0         1
     18953     18952     18954         0         1
     18956     18955     18957         0         1
     18959     18958     18960         0         1
     18962     18961     18963         0         1
     18965     18964     18966         0         1
     18968     18967     18969         0         1
     18971     18970     18972         0         1
     18974     18973     18975         0         1
     18977     18976     18978         0         1
     18980     18979     18981         0         1
     18983     18982     18984         0         1
     18986     18985     18987         0         1
     18989     18988     18990         0         1
     18992     18991     18993         0         1
     18995     18994     18996         0         1
     18998     18997     18999         0         1
     19001     19000     19002         0         1
     19004     19003     19005         0         1
     19007     19006     19008         0         1
     19010     19009     19011         0         1
     19013     19012     19014         0         1
     19016     19015     19017         0         1
     19019     19018     19020         0         1
     19022     19021     19023         0         1
     19025     19024     19026         0         1
     19028     19027     19029         0         1
     19031     19030     19032         0         1
     19034     19033     19035         0         1
     19037     19036     19038         0         1
     19040     19039     19041         0         1
     19043     19042     19044         0         1
     19046     19045     19047         0         1
     19049     19048     19050         0         1
     19052     19051     19053         0         1
     19055     19054     19056         0         1
     19058     19057     19059         0         1
     19061     19060     19062         0         1
     19064     19063     19065         0         1
     19067     19066     19068         0         1
     19070     19069     19071         0         1
     19073     19072     19074         0         1
     19076     19075     19077         0         1
     19079     19078     19080         0         1
     19082     19081     19083         0         1
     19085     19084     19086         0         1
     19088     19087     19089         0         1
     19091     19090     19092         0         1
     19094     19093     19095         0         1
     19097     19096     19098         0         1
     19100     19099     19101         0         1
     19103     19102     19104         0         1
     19106     19105     19107         0         1
     19109     19108     19110         0         1
     19112     19111     19113         0         1
     19115     19114     19116         0         1
     19118     19117     19119         0         1
     19121     19120     19122         0         1
     19124     19123     19125         0         1
     19127     19126     19128         0         1
     19130     19129     19131         0         1
     19133     19132     19134         0         1
     19136     19135     19137         0         1
     19139     19138     19140         0         1
     19142     19141     19143         0         1
     19145     19144     19146         0         1
     19148     19147     19149         0         1
     19151     19150     19152         0         1
     19154     19153     19155         0         1
     19157     19156     19158         0         1
     19160     19159     19161         0         1
     19163     19162     19164         0         1
     19166     19165     19167         0         1
     19169     19168     19170         0         1
     19172     19171     19173         0         1
     19175     19174     19176         0         1
     19178     19177     19179         0         1
     19181     19180     19182         0         1
     19184     19183     19185         0         1
     19187     19186     19188         0         1
     19190     19189     19191         0         1
     19193     19192     19194         0         1
     19196     19195     19197         0         1
     19199     19198     19200         0         1
     19202     19201     19203         0         1
     19205     19204     19206         0         1
     19208     19207     19209         0         1
     19211     19210     19212         0         1
     19214     19213     19215         0         1
     19217     19216     19218         0         1
     19220     19219     19221         0         1
     19223     19222     19224         0         1
     19226     19225     19227         0         1
     19229     19228     19230         0         1
     19232     19231     19233         0         1
     19235     19234     19236         0         1
     19238     19237     19239         0         1
     19241     19240     19242         0         1
     19244     19243     19245         0         1
     19247     19246     19248         0         1
     19250     19249     19251         0         1
     19253     19252     19254         0         1
     19256     19255     19257         0         1
     19259     19258     19260         0         1
     19262     19261     19263         0         1
     19265     19264     19266         0         1
     19268     19267     19269         0         1
     19271     19270     19272         0         1
     19274     19273     19275         0         1
     19277     19276     19278         0         1
     19280     19279     19281         0         1
     19283     19282     19284         0         1
     19286     19285     19287         0         1
     19289     19288     19290         0         1
     19292     19291     19293         0         1
     19295     19294     19296         0         1
     19298     19297     19299         0         1
     19301     19300     19302         0         1
     19304     19303     19305         0         1
     19307     19306     19308         0         1
     19310     19309     19311         0         1
     19313     19312     19314         0         1
     19316     19315     19317         0         1
     19319     19318     19320         0         1
     19322     19321     19323         0         1
     19325     19324     19326         0         1
     19328     19327     19329         0         1
     19331     19330     19332         0         1
     19334     19333     19335         0         1
     19337     19336     19338         0         1
     19340     19339     19341         0         1
     19343     19342     19344         0         1
     19346     19345     19347         0         1
     19349     19348     19350         0         1
     19352     19351     19353         0         1
     19355     19354     19356         0         1
     19358     19357     19359         0         1
     19361     19360     19362         0         1
     19364     19363     19365         0         1
     19367     19366     19368         0         1
     19370     19369     19371         0         1
     19373     19372     19374         0         1
     19376     19375     19377         0         1
     19379     19378     19380         0         1
     19382     19381     19383         0         1
     19385     19384     19386         0         1
     19388     19387     19389         0         1
     19391     19390     19392         0         1
     19394     19393     19395         0         1
     19397     19396     19398         0         1
     19400     19399     19401         0         1
     19403     19402     19404         0         1
     19406     19405     19407         0         1
     19409     19408     19410         0         1
     19412     19411     19413         0         1
     19415     19414     19416         0         1
     19418     19417     19419         0         1
     19421     19420     19422         0         1
     19424     19423     19425         0         1
     19427     19426     19428         0         1
     19430     19429     19431         0         1
     19433     19432     19434         0         1
     19436     19435     19437         0         1
     19439     19438     19440         0         1
     19442     19441     19443         0         1
     19445     19444     19446         0         1
     19448     19447     19449         0         1
     19451     19450     19452         0         1
     19454     19453     19455         0         1
     19457     19456     19458         0         1
     19460     19459     19461         0         1
     19463     19462     19464         0         1
     19466     19465     19467         0         1
     19469     19468     19470         0         1
     19472     19471     19473         0         1
     19475     19474     19476         0         1
     19478     19477     19479         0         1
     19481     19480     19482         0         1
     19484     19483     19485         0         1
     19487     19486     19488         0         1
     19490     19489     19491         0         1
     19493     19492     19494         0         1
     19496     19495     19497         0         1
     19499     19498     19500         0         1
     19502     19501     19503         0         1
     19505     19504     19506         0         1
     19508     19507     19509         0         1
     19511     19510     19512         0         1
     19514     19513     19515         0         1
     19517     19516     19518         0         1
     19520     19519     19521         0         1
     19523     19522     19524         0         1
     19526     19525     19527         0         1
     19529     19528     19530         0         1
     19532     19531     19533         0         1
     19535     19534     19536         0         1
     19538     19537     19539         0         1
     19541     19540     19542         0         1
     19544     19543     19545         0         1
     19547     19546     19548         0         1
     19550     19549     19551         0         1
     19553     19552     19554         0         1
     19556     19555     19557         0         1
     19559     19558     19560         0         1
     19562     19561     19563         0         1
     19565     19564     19566         0         1
     19568     19567     19569         0         1
     19571     19570     19572         0         1
     19574     19573     19575         0         1
     19577     19576     19578         0         1
     19580     19579     19581         0         1
     19583     19582     19584         0         1
     19586     19585     19587         0         1
     19589     19588     19590         0         1
     19592     19591     19593         0         1
     19595     19594     19596         0         1
     19598     19597     19599         0         1
     19601     19600     19602         0         1
     19604     19603     19605         0         1
     19607     19606     19608         0         1
     19610     19609     19611         0         1
     19613     19612     19614         0         1
     19616     19615     19617         0         1
     19619     19618     19620         0         1
     19622     19621     19623         0         1
     19625     19624     19626         0         1
     19628     19627     19629         0         1
     19631     19630     19632         0         1
     19634     19633     19635         0         1
     19637     19636     19638         0         1
     19640     19639     19641         0         1
     19643     19642     19644         0         1
     19646     19645     19647         0         1
     19649     19648     19650         0         1
     19652     19651     19653         0         1
     19655     19654     19656         0         1
     19658     19657     19659         0         1
     19661     19660     19662         0         1
     19664     19663     19665         0         1
     19667     19666     19668         0         1
     19670     19669     19671         0         1
     19673     19672     19674         0         1
     19676     19675     19677         0         1
     19679     19678     19680         0         1
     19682     19681     19683         0         1
     19685     19684     19686         0         1
     19688     19687     19689         0         1
     19691     19690     19692         0         1
     19694     19693     19695         0         1
     19697     19696     19698         0         1
     19700     19699     19701         0         1
     19703     19702     19704         0         1
     19706     19705     19707         0         1
     19709     19708     19710         0         1
     19712     19711     19713         0         1
     19715     19714     19716         0         1
     19718     19717     19719         0         1
     19721     19720     19722         0         1
     19724     19723     19725         0         1
     19727     19726     19728         0         1
     19730     19729     19731         0         1
     19733     19732     19734         0         1
     19736     19735     19737         0         1
     19739     19738     19740         0         1
     19742     19741     19743         0         1
     19745     19744     19746         0         1
     19748     19747     19749         0         1
     19751     19750     19752         0         1
     19754     19753     19755         0         1
     19757     19756     19758         0         1
     19760     19759     19761         0         1
     19763     19762     19764         0         1
     19766     19765     19767         0         1
     19769     19768     19770         0         1
     19772     19771     19773         0         1
     19775     19774     19776         0         1
     19778     19777     19779         0         1
     19781     19780     19782         0         1
     19784     19783     19785         0         1
     19787     19786     19788         0         1
     19790     19789     19791         0         1
     19793     19792     19794         0         1
     19796     19795     19797         0         1
     19799     19798     19800         0         1
     19802     19801     19803         0         1
     19805     19804     19806         0         1
     19808     19807     19809         0         1
     19811     19810     19812         0         1
     19814     19813     19815         0         1
     19817     19816     19818         0         1
     19820     19819     19821         0         1
     19823     19822     19824         0         1
     19826     19825     19827         0         1
     19829     19828     19830         0         1
     19832     19831     19833         0         1
     19835     19834     19836         0         1
     19838     19837     19839         0         1
     19841     19840     19842         0         1
     19844     19843     19845         0         1
     19847     19846     19848         0         1
     19850     19849     19851         0         1
     19853     19852     19854         0         1
     19856     19855     19857         0         1
     19859     19858     19860         0         1
     19862     19861     19863         0         1
     19865     19864     19866         0         1
     19868     19867     19869         0         1
     19871     19870     19872         0         1
     19874     19873     19875         0         1
     19877     19876     19878         0         1
     19880     19879     19881         0         1
     19883     19882     19884         0         1
     19886     19885     19887         0         1
     19889     19888     19890         0         1
     19892     19891     19893         0         1
     19895     19894     19896         0         1
     19898     19897     19899         0         1
     19901     19900     19902         0         1
     19904     19903     19905         0         1
     19907     19906     19908         0         1
     19910     19909     19911         0         1
     19913     19912     19914         0         1
     19916     19915     19917         0         1
     19919     19918     19920         0         1
     19922     19921     19923         0         1
     19925     19924     19926         0         1
     19928     19927     19929         0         1
     19931     19930     19932         0         1
     19934     19933     19935         0         1
     19937     19936     19938         0         1
     19940     19939     19941         0         1
     19943     19942     19944         0         1
     19946     19945     19947         0         1
     19949     19948     19950         0         1
     19952     19951     19953         0         1
     19955     19954     19956         0         1
     19958     19957     19959         0         1
     19961     19960     19962         0         1
     19964     19963     19965         0         1
     19967     19966     19968         0         1
     19970     19969     19971         0         1
     19973     19972     19974         0         1
     19976     19975     19977         0         1
     19979     19978     19980         0         1
     19982     19981     19983         0         1
     19985     19984     19986         0         1
     19988     19987     19989         0         1
     19991     19990     19992         0         1
     19994     19993     19995         0         1
     19997     19996     19998         0         1
     20000     19999     20001         0         1
     20003     20002     20004         0         1
     20006     20005     20007         0         1
     20009     20008     20010         0         1
     20012     20011     20013         0         1
     20015     20014     20016         0         1
     20018     20017     20019         0         1
     20021     20020     20022         0         1
     20024     20023     20025         0         1
     20027     20026     20028         0         1
     20030     20029     20031         0         1
     20033     20032     20034         0         1
     20036     20035     20037         0         1
     20039     20038     20040         0         1
     20042     20041     20043         0         1
     20045     20044     20046         0         1
     20048     20047     20049         0         1
     20051     20050     20052         0         1
     20054     20053     20055         0         1
     20057     20056     20058         0         1
     20060     20059     20061         0         1
     20063     20062     20064         0         1
     20066     20065     20067         0         1
     20069     20068     20070         0         1
     20072     20071     20073         0         1
     20075     20074     20076         0         1
     20078     20077     20079         0         1
     20081     20080     20082         0         1
     20084     20083     20085         0         1
     20087     20086     20088         0         1
     20090     20089     20091         0         1
     20093     20092     20094         0         1
     20096     20095     20097         0         1
     20099     20098     20100         0         1
     20102     20101     20103         0         1
     20105     20104     20106         0         1
     20108     20107     20109         0         1
     20111     20110     20112         0         1
     20114     20113     20115         0         1
     20117     20116     20118         0         1
     20120     20119     20121         0         1
     20123     20122     20124         0         1
     20126     20125     20127         0         1
     20129     20128     20130         0         1
     20132     20131     20133         0         1
     20135     20134     20136         0         1
     20138     20137     20139         0         1
     20141     20140     20142         0         1
     20144     20143     20145         0         1
     20147     20146     20148         0         1
     20150     20149     20151         0         1
     20153     20152     20154         0         1
     20156     20155     20157         0         1
     20159     20158     20160         0         1
     20162     20161     20163         0         1
     20165     20164     20166         0         1
     20168     20167     20169         0         1
     20171     20170     20172         0         1
     20174     20173     20175         0         1
     20177     20176     20178         0         1
     20180     20179     20181         0         1
     20183     20182     20184         0         1
     20186     20185     20187         0         1
     20189     20188     20190         0         1
     20192     20191     20193         0         1
     20195     20194     20196         0         1
     20198     20197     20199         0         1
     20201     20200     20202         0         1
     20204     20203     20205         0         1
     20207     20206     20208         0         1
     20210     20209     20211         0         1
     20213     20212     20214         0         1
     20216     20215     20217         0         1
     20219     20218     20220         0         1
     20222     20221     20223         0         1
     20225     20224     20226         0         1
     20228     20227     20229         0         1
     20231     20230     20232         0         1
     20234     20233     20235         0         1
     20237     20236     20238         0         1
     20240     20239     20241         0         1
     20243     20242     20244         0         1
     20246     20245     20247         0         1
     20249     20248     20250         0         1
     20252     20251     20253         0         1
     20255     20254     20256         0         1
     20258     20257     20259         0         1
     20261     20260     20262         0         1
     20264     20263     20265         0         1
     20267     20266     20268         0         1
     20270     20269     20271         0         1
     20273     20272     20274         0         1
     20276     20275     20277         0         1
     20279     20278     20280         0         1
     20282     20281     20283         0         1
     20285     20284     20286         0         1
     20288     20287     20289         0         1
     20291     20290     20292         0         1
     20294     20293     20295         0         1
     20297     20296     20298         0         1
     20300     20299     20301         0         1
     20303     20302     20304         0         1
     20306     20305     20307         0         1
     20309     20308     20310         0         1
     20312     20311     20313         0         1
     20315     20314     20316         0         1
     20318     20317     20319         0         1
     20321     20320     20322         0         1
     20324     20323     20325         0         1
     20327     20326     20328         0         1
     20330     20329     20331         0         1
     20333     20332     20334         0         1
     20336     20335     20337         0         1
     20339     20338     20340         0         1
     20342     20341     20343         0         1
     20345     20344     20346         0         1
     20348     20347     20349         0         1
     20351     20350     20352         0         1
     20354     20353     20355         0         1
     20357     20356     20358         0         1
     20360     20359     20361         0         1
     20363     20362     20364         0         1
     20366     20365     20367         0         1
     20369     20368     20370         0         1
     20372     20371     20373         0         1
     20375     20374     20376         0         1
     20378     20377     20379         0         1
     20381     20380     20382         0         1
     20384     20383     20385         0         1
     20387     20386     20388         0         1
     20390     20389     20391         0         1
     20393     20392     20394         0         1
     20396     20395     20397         0         1
     20399     20398     20400         0         1
     20402     20401     20403         0         1
     20405     20404     20406         0         1
     20408     20407     20409         0         1
     20411     20410     20412         0         1
     20414     20413     20415         0         1
     20417     20416     20418         0         1
     20420     20419     20421         0         1
     20423     20422     20424         0         1
     20426     20425     20427         0         1
     20429     20428     20430         0         1
     20432     20431     20433         0         1
     20435     20434     20436         0         1
     20438     20437     20439         0         1
     20441     20440     20442         0         1
     20444     20443     20445         0         1
     20447     20446     20448         0         1
     20450     20449     20451         0         1
     20453     20452     20454         0         1
     20456     20455     20457         0         1
     20459     20458     20460         0         1
     20462     20461     20463         0         1
     20465     20464     20466         0         1
     20468     20467     20469         0         1
     20471     20470     20472         0         1
     20474     20473     20475         0         1
     20477     20476     20478         0         1
     20480     20479     20481         0         1
     20483     20482     20484         0         1
     20486     20485     20487         0         1
     20489     20488     20490         0         1
     20492     20491     20493         0         1
     20495     20494     20496         0         1
     20498     20497     20499         0         1
     20501     20500     20502         0         1
     20504     20503     20505         0         1
     20507     20506     20508         0         1
     20510     20509     20511         0         1
     20513     20512     20514         0         1
     20516     20515     20517         0         1
     20519     20518     20520         0         1
     20522     20521     20523         0         1
     20525     20524     20526         0         1
     20528     20527     20529         0         1
     20531     20530     20532         0         1
     20534     20533     20535         0         1
     20537     20536     20538         0         1
     20540     20539     20541         0         1
     20543     20542     20544         0         1
     20546     20545     20547         0         1
     20549     20548     20550         0         1
     20552     20551     20553         0         1
     20555     20554     20556         0         1
     20558     20557     20559         0         1
     20561     20560     20562         0         1
     20564     20563     20565         0         1
     20567     20566     20568         0         1
     20570     20569     20571         0         1
     20573     20572     20574         0         1
     20576     20575     20577         0         1
     20579     20578     20580         0         1
     20582     20581     20583         0         1
     20585     20584     20586         0         1
     20588     20587     20589         0         1
     20591     20590     20592         0         1
     20594     20593     20595         0         1
     20597     20596     20598         0         1
     20600     20599     20601         0         1
     20603     20602     20604         0         1
     20606     20605     20607         0         1
     20609     20608     20610         0         1
     20612     20611     20613         0         1
     20615     20614     20616         0         1
     20618     20617     20619         0         1
     20621     20620     20622         0         1
     20624     20623     20625         0         1
     20627     20626     20628         0         1
     20630     20629     20631         0         1
     20633     20632     20634         0         1
     20636     20635     20637         0         1
     20639     20638     20640         0         1
     20642     20641     20643         0         1
     20645     20644     20646         0         1
     20648     20647     20649         0         1
     20651     20650     20652         0         1
     20654     20653     20655         0         1
     20657     20656     20658         0         1
     20660     20659     20661         0         1
     20663     20662     20664         0         1
     20666     20665     20667         0         1
     20669     20668     20670         0         1
     20672     20671     20673         0         1
     20675     20674     20676         0         1
     20678     20677     20679         0         1
     20681     20680     20682         0         1
     20684     20683     20685         0         1
     20687     20686     20688         0         1
     20690     20689     20691         0         1
     20693     20692     20694         0         1
     20696     20695     20697         0         1
     20699     20698     20700         0         1
     20702     20701     20703         0         1
     20705     20704     20706         0         1
     20708     20707     20709         0         1
     20711     20710     20712         0         1
     20714     20713     20715         0         1
     20717     20716     20718         0         1
     20720     20719     20721         0         1
     20723     20722     20724         0         1
     20726     20725     20727         0         1
     20729     20728     20730         0         1
     20732     20731     20733         0         1
     20735     20734     20736         0         1
     20738     20737     20739         0         1
     20741     20740     20742         0         1
     20744     20743     20745         0         1
     20747     20746     20748         0         1
     20750     20749     20751         0         1
     20753     20752     20754         0         1
     20756     20755     20757         0         1
     20759     20758     20760         0         1
     20762     20761     20763         0         1
     20765     20764     20766         0         1
     20768     20767     20769         0         1
     20771     20770     20772         0         1
     20774     20773     20775         0         1
     20777     20776     20778         0         1
     20780     20779     20781         0         1
     20783     20782     20784         0         1
     20786     20785     20787         0         1
     20789     20788     20790         0         1
     20792     20791     20793         0         1
     20795     20794     20796         0         1
     20798     20797     20799         0         1
     20801     20800     20802         0         1
     20804     20803     20805         0         1
     20807     20806     20808         0         1
     20810     20809     20811         0         1
     20813     20812     20814         0         1
     20816     20815     20817         0         1
     20819     20818     20820         0         1
     20822     20821     20823         0         1
     20825     20824     20826         0         1
     20828     20827     20829         0         1
     20831     20830     20832         0         1
     20834     20833     20835         0         1
     20837     20836     20838         0         1
     20840     20839     20841         0         1
     20843     20842     20844         0         1
     20846     20845     20847         0         1
     20849     20848     20850         0         1
     20852     20851     20853         0         1
     20855     20854     20856         0         1
     20858     20857     20859         0         1
     20861     20860     20862         0         1
     20864     20863     20865         0         1
     20867     20866     20868         0         1
     20870     20869     20871         0         1
     20873     20872     20874         0         1
     20876     20875     20877         0         1
     20879     20878     20880         0         1
     20882     20881     20883         0         1
     20885     20884     20886         0         1
     20888     20887     20889         0         1
     20891     20890     20892         0         1
     20894     20893     20895         0         1
     20897     20896     20898         0         1
     20900     20899     20901         0         1
     20903     20902     20904         0         1
     20906     20905     20907         0         1
     20909     20908     20910         0         1
     20912     20911     20913         0         1
     20915     20914     20916         0         1
     20918     20917     20919         0         1
     20921     20920     20922         0         1
     20924     20923     20925         0         1
     20927     20926     20928         0         1
     20930     20929     20931         0         1
     20933     20932     20934         0         1
     20936     20935     20937         0         1
     20939     20938     20940         0         1
     20942     20941     20943         0         1
     20945     20944     20946         0         1
     20948     20947     20949         0         1
     20951     20950     20952         0         1
     20954     20953     20955         0         1
     20957     20956     20958         0         1
     20960     20959     20961         0         1
     20963     20962     20964         0         1
     20966     20965     20967         0         1
     20969     20968     20970         0         1
     20972     20971     20973         0         1
     20975     20974     20976         0         1
     20978     20977     20979         0         1
     20981     20980     20982         0         1
     20984     20983     20985         0         1
     20987     20986     20988         0         1
     20990     20989     20991         0         1
     20993     20992     20994         0         1
     20996     20995     20997         0         1
     20999     20998     21000         0         1
     21002     21001     21003         0         1
     21005     21004     21006         0         1
     21008     21007     21009         0         1
     21011     21010     21012         0         1
     21014     21013     21015         0         1
     21017     21016     21018         0         1
     21020     21019     21021         0         1
     21023     21022     21024         0         1
     21026     21025     21027         0         1
     21029     21028     21030         0         1
     21032     21031     21033         0         1
     21035     21034     21036         0         1
     21038     21037     21039         0         1
     21041     21040     21042         0         1
     21044     21043     21045         0         1
     21047     21046     21048         0         1
     21050     21049     21051         0         1
     21053     21052     21054         0         1
     21056     21055     21057         0         1
     21059     21058     21060         0         1
     21062     21061     21063         0         1
     21065     21064     21066         0         1
     21068     21067     21069         0         1
     21071     21070     21072         0         1
     21074     21073     21075         0         1
     21077     21076     21078         0         1
     21080     21079     21081         0         1
     21083     21082     21084         0         1
     21086     21085     21087         0         1
     21089     21088     21090         0         1
     21092     21091     21093         0         1
     21095     21094     21096         0         1
     21098     21097     21099         0         1
     21101     21100     21102         0         1
     21104     21103     21105         0         1
     21107     21106     21108         0         1
     21110     21109     21111         0         1
     21113     21112     21114         0         1
     21116     21115     21117         0         1
     21119     21118     21120         0         1
     21122     21121     21123         0         1
     21125     21124     21126         0         1
     21128     21127     21129         0         1
     21131     21130     21132         0         1
     21134     21133     21135         0         1
     21137     21136     21138         0         1
     21140     21139     21141         0         1
     21143     21142     21144         0         1
     21146     21145     21147         0         1
     21149     21148     21150         0         1
     21152     21151     21153         0         1
     21155     21154     21156         0         1
     21158     21157     21159         0         1
     21161     21160     21162         0         1
     21164     21163     21165         0         1
     21167     21166     21168         0         1
     21170     21169     21171         0         1
     21173     21172     21174         0         1
     21176     21175     21177         0         1
     21179     21178     21180         0         1
     21182     21181     21183         0         1
     21185     21184     21186         0         1
     21188     21187     21189         0         1
     21191     21190     21192         0         1
     21194     21193     21195         0         1
     21197     21196     21198         0         1
     21200     21199     21201         0         1
     21203     21202     21204         0         1
     21206     21205     21207         0         1
     21209     21208     21210         0         1
     21212     21211     21213         0         1
     21215     21214     21216         0         1
     21218     21217     21219         0         1
     21221     21220     21222         0         1
     21224     21223     21225         0         1
     21227     21226     21228         0         1
     21230     21229     21231         0         1
     21233     21232     21234         0         1
     21236     21235     21237         0         1
     21239     21238     21240         0         1
     21242     21241     21243         0         1
     21245     21244     21246         0         1
     21248     21247     21249         0         1
     21251     21250     21252         0         1
     21254     21253     21255         0         1
     21257     21256     21258         0         1
     21260     21259     21261         0         1
     21263     21262     21264         0         1
     21266     21265     21267         0         1
     21269     21268     21270         0         1
     21272     21271     21273         0         1
     21275     21274     21276         0         1
     21278     21277     21279         0         1
     21281     21280     21282         0         1
     21284     21283     21285         0         1
     21287     21286     21288         0         1
     21290     21289     21291         0         1
     21293     21292     21294         0         1
     21296     21295     21297         0         1
     21299     21298     21300         0         1
     21302     21301     21303         0         1
     21305     21304     21306         0         1
     21308     21307     21309         0         1
     21311     21310     21312         0         1
     21314     21313     21315         0         1
     21317     21316     21318         0         1
     21320     21319     21321         0         1
     21323     21322     21324         0         1
     21326     21325     21327         0         1
     21329     21328     21330         0         1
     21332     21331     21333         0         1
     21335     21334     21336         0         1
     21338     21337     21339         0         1
     21341     21340     21342         0         1
     21344     21343     21345         0         1
     21347     21346     21348         0         1
     21350     21349     21351         0         1
     21353     21352     21354         0         1
     21356     21355     21357         0         1
     21359     21358     21360         0         1
     21362     21361     21363         0         1
     21365     21364     21366         0         1
     21368     21367     21369         0         1
     21371     21370     21372         0         1
     21374     21373     21375         0         1
     21377     21376     21378         0         1
     21380     21379     21381         0         1
     21383     21382     21384         0         1
     21386     21385     21387         0         1
     21389     21388     21390         0         1
     21392     21391     21393         0         1
     21395     21394     21396         0         1
     21398     21397     21399         0         1
     21401     21400     21402         0         1
     21404     21403     21405         0         1
     21407     21406     21408         0         1
     21410     21409     21411         0         1
     21413     21412     21414         0         1
     21416     21415     21417         0         1
     21419     21418     21420         0         1
     21422     21421     21423         0         1
     21425     21424     21426         0         1
     21428     21427     21429         0         1
     21431     21430     21432         0         1
     21434     21433     21435         0         1
     21437     21436     21438         0         1
     21440     21439     21441         0         1
     21443     21442     21444         0         1
     21446     21445     21447         0         1
     21449     21448     21450         0         1
     21452     21451     21453         0         1
     21455     21454     21456         0         1
     21458     21457     21459         0         1
     21461     21460     21462         0         1
     21464     21463     21465         0         1
     21467     21466     21468         0         1
     21470     21469     21471         0         1
     21473     21472     21474         0         1
     21476     21475     21477         0         1
     21479     21478     21480         0         1
     21482     21481     21483         0         1
     21485     21484     21486         0         1
     21488     21487     21489         0         1
     21491     21490     21492         0         1
     21494     21493     21495         0         1
     21497     21496     21498         0         1
     21500     21499     21501         0         1
     21503     21502     21504         0         1
     21506     21505     21507         0         1
     21509     21508     21510         0         1
     21512     21511     21513         0         1
     21515     21514     21516         0         1
     21518     21517     21519         0         1
     21521     21520     21522         0         1
     21524     21523     21525         0         1
     21527     21526     21528         0         1
     21530     21529     21531         0         1
     21533     21532     21534         0         1
     21536     21535     21537         0         1
     21539     21538     21540         0         1
     21542     21541     21543         0         1
     21545     21544     21546         0         1
     21548     21547     21549         0         1
     21551     21550     21552         0         1
     21554     21553     21555         0         1
     21557     21556     21558         0         1
     21560     21559     21561         0         1
     21563     21562     21564         0         1
     21566     21565     21567         0         1
     21569     21568     21570         0         1
     21572     21571     21573         0         1
     21575     21574     21576         0         1
     21578     21577     21579         0         1
     21581     21580     21582         0         1
     21584     21583     21585         0         1
     21587     21586     21588         0         1
     21590     21589     21591         0         1
     21593     21592     21594         0         1
     21596     21595     21597         0         1
     21599     21598     21600         0         1
     21602     21601     21603         0         1
     21605     21604     21606         0         1
     21608     21607     21609         0         1
     21611     21610     21612         0         1
     21614     21613     21615         0         1
     21617     21616     21618         0         1
     21620     21619     21621         0         1
     21623     21622     21624         0         1
     21626     21625     21627         0         1
     21629     21628     21630         0         1
     21632     21631     21633         0         1
     21635     21634     21636         0         1
     21638     21637     21639         0         1
     21641     21640     21642         0         1
     21644     21643     21645         0         1
     21647     21646     21648         0         1
     21650     21649     21651         0         1
     21653     21652     21654         0         1
     21656     21655     21657         0         1
     21659     21658     21660         0         1
     21662     21661     21663         0         1
     21665     21664     21666         0         1
     21668     21667     21669         0         1
     21671     21670     21672         0         1
     21674     21673     21675         0         1
     21677     21676     21678         0         1
     21680     21679     21681         0         1
     21683     21682     21684         0         1
     21686     21685     21687         0         1
     21689     21688     21690         0         1
     21692     21691     21693         0         1
     21695     21694     21696         0         1
     21698     21697     21699         0         1
     21701     21700     21702         0         1
     21704     21703     21705         0         1
     21707     21706     21708         0         1
     21710     21709     21711         0         1
     21713     21712     21714         0         1
     21716     21715     21717         0         1
     21719     21718     21720         0         1
     21722     21721     21723         0         1
     21725     21724     21726         0         1
     21728     21727     21729         0         1
     21731     21730     21732         0         1
     21734     21733     21735         0         1
     21737     21736     21738         0         1
     21740     21739     21741         0         1
     21743     21742     21744         0         1
     21746     21745     21747         0         1
     21749     21748     21750         0         1
     21752     21751     21753         0         1
     21755     21754     21756         0         1
     21758     21757     21759         0         1
     21761     21760     21762         0         1
     21764     21763     21765         0         1
     21767     21766     21768         0         1
     21770     21769     21771         0         1
     21773     21772     21774         0         1
     21776     21775     21777         0         1
     21779     21778     21780         0         1
     21782     21781     21783         0         1
     21785     21784     21786         0         1
     21788     21787     21789         0         1
     21791     21790     21792         0         1
     21794     21793     21795         0         1
     21797     21796     21798         0         1
     21800     21799     21801         0         1
     21803     21802     21804         0         1
     21806     21805     21807         0         1
     21809     21808     21810         0         1
     21812     21811     21813         0         1
     21815     21814     21816         0         1
     21818     21817     21819         0         1
     21821     21820     21822         0         1
     21824     21823     21825         0         1
     21827     21826     21828         0         1
     21830     21829     21831         0         1
     21833     21832     21834         0         1
     21836     21835     21837         0         1
     21839     21838     21840         0         1
     21842     21841     21843         0         1
     21845     21844     21846         0         1
     21848     21847     21849         0         1
     21851     21850     21852         0         1
     21854     21853     21855         0         1
     21857     21856     21858         0         1
     21860     21859     21861         0         1
     21863     21862     21864         0         1
     21866     21865     21867         0         1
     21869     21868     21870         0         1
     21872     21871     21873         0         1
     21875     21874     21876         0         1
     21878     21877     21879         0         1
     21881     21880     21882         0         1
     21884     21883     21885         0         1
     21887     21886     21888         0         1
     21890     21889     21891         0         1
     21893     21892     21894         0         1
     21896     21895     21897         0         1
     21899     21898     21900         0         1
     21902     21901     21903         0         1
     21905     21904     21906         0         1
     21908     21907     21909         0         1
     21911     21910     21912         0         1
     21914     21913     21915         0         1
     21917     21916     21918         0         1
     21920     21919     21921         0         1
     21923     21922     21924         0         1
     21926     21925     21927         0         1
     21929     21928     21930         0         1
     21932     21931     21933         0         1
     21935     21934     21936         0         1
     21938     21937     21939         0         1
     21941     21940     21942         0         1
     21944     21943     21945         0         1
     21947     21946     21948         0         1
     21950     21949     21951         0         1
     21953     21952     21954         0         1
     21956     21955     21957         0         1
     21959     21958     21960         0         1
     21962     21961     21963         0         1
     21965     21964     21966         0         1
     21968     21967     21969         0         1
     21971     21970     21972         0         1
     21974     21973     21975         0         1
     21977     21976     21978         0         1
     21980     21979     21981         0         1
     21983     21982     21984         0         1
     21986     21985     21987         0         1
     21989     21988     21990         0         1
     21992     21991     21993         0         1
     21995     21994     21996         0         1
     21998     21997     21999         0         1
     22001     22000     22002         0         1
     22004     22003     22005         0         1
     22007     22006     22008         0         1
     22010     22009     22011         0         1
     22013     22012     22014         0         1
     22016     22015     22017         0         1
     22019     22018     22020         0         1
     22022     22021     22023         0         1
     22025     22024     22026         0         1
     22028     22027     22029         0         1
     22031     22030     22032         0         1
     22034     22033     22035         0         1
     22037     22036     22038         0         1
     22040     22039     22041         0         1
     22043     22042     22044         0         1
     22046     22045     22047         0         1
     22049     22048     22050         0         1
     22052     22051     22053         0         1
     22055     22054     22056         0         1
     22058     22057     22059         0         1
     22061     22060     22062         0         1
     22064     22063     22065         0         1
     22067     22066     22068         0         1
     22070     22069     22071         0         1
     22073     22072     22074         0         1
     22076     22075     22077         0         1
     22079     22078     22080         0         1
     22082     22081     22083         0         1
     22085     22084     22086         0         1
     22088     22087     22089         0         1
     22091     22090     22092         0         1
     22094     22093     22095         0         1
     22097     22096     22098         0         1
     22100     22099     22101         0         1
     22103     22102     22104         0         1
     22106     22105     22107         0         1
     22109     22108     22110         0         1
     22112     22111     22113         0         1
     22115     22114     22116         0         1
     22118     22117     22119         0         1
     22121     22120     22122         0         1
     22124     22123     22125         0         1
     22127     22126     22128         0         1
     22130     22129     22131         0         1
     22133     22132     22134         0         1
     22136     22135     22137         0         1
     22139     22138     22140         0         1
     22142     22141     22143         0         1
     22145     22144     22146         0         1
     22148     22147     22149         0         1
     22151     22150     22152         0         1
     22154     22153     22155         0         1
     22157     22156     22158         0         1
     22160     22159     22161         0         1
     22163     22162     22164         0         1
     22166     22165     22167         0         1
     22169     22168     22170         0         1
     22172     22171     22173         0         1
     22175     22174     22176         0         1
     22178     22177     22179         0         1
     22181     22180     22182         0         1
     22184     22183     22185         0         1
     22187     22186     22188         0         1
     22190     22189     22191         0         1
     22193     22192     22194         0         1
     22196     22195     22197         0         1
     22199     22198     22200         0         1
     22202     22201     22203         0         1
     22205     22204     22206         0         1
     22208     22207     22209         0         1
     22211     22210     22212         0         1
     22214     22213     22215         0         1
     22217     22216     22218         0         1
     22220     22219     22221         0         1
     22223     22222     22224         0         1
     22226     22225     22227         0         1
     22229     22228     22230         0         1
     22232     22231     22233         0         1
     22235     22234     22236         0         1
     22238     22237     22239         0         1
     22241     22240     22242         0         1
     22244     22243     22245         0         1
     22247     22246     22248         0         1
     22250     22249     22251         0         1
     22253     22252     22254         0         1
     22256     22255     22257         0         1
     22259     22258     22260         0         1
     22262     22261     22263         0         1
     22265     22264     22266         0         1
     22268     22267     22269         0         1
     22271     22270     22272         0         1
     22274     22273     22275         0         1
     22277     22276     22278         0         1
     22280     22279     22281         0         1
     22283     22282     22284         0         1
     22286     22285     22287         0         1
     22289     22288     22290         0         1
     22292     22291     22293         0         1
     22295     22294     22296         0         1
     22298     22297     22299         0         1
     22301     22300     22302         0         1
     22304     22303     22305         0         1
     22307     22306     22308         0         1
     22310     22309     22311         0         1
     22313     22312     22314         0         1
     22316     22315     22317         0         1
     22319     22318     22320         0         1
     22322     22321     22323         0         1
     22325     22324     22326         0         1
     22328     22327     22329         0         1
     22331     22330     22332         0         1
     22334     22333     22335         0         1
     22337     22336     22338         0         1
     22340     22339     22341         0         1
     22343     22342     22344         0         1
     22346     22345     22347         0         1
     22349     22348     22350         0         1
     22352     22351     22353         0         1
     22355     22354     22356         0         1
     22358     22357     22359         0         1
     22361     22360     22362         0         1
     22364     22363     22365         0         1
     22367     22366     22368         0         1
     22370     22369     22371         0         1
     22373     22372     22374         0         1
     22376     22375     22377         0         1
     22379     22378     22380         0         1
     22382     22381     22383         0         1
     22385     22384     22386         0         1
     22388     22387     22389         0         1
     22391     22390     22392         0         1
     22394     22393     22395         0         1
     22397     22396     22398         0         1
     22400     22399     22401         0         1
     22403     22402     22404         0         1
     22406     22405     22407         0         1
     22409     22408     22410         0         1
     22412     22411     22413         0         1
     22415     22414     22416         0         1
     22418     22417     22419         0         1
     22421     22420     22422         0         1
     22424     22423     22425         0         1
     22427     22426     22428         0         1
     22430     22429     22431         0         1
     22433     22432     22434         0         1
     22436     22435     22437         0         1
     22439     22438     22440         0         1
     22442     22441     22443         0         1
     22445     22444     22446         0         1
     22448     22447     22449         0         1
     22451     22450     22452         0         1
     22454     22453     22455         0         1
     22457     22456     22458         0         1
     22460     22459     22461         0         1
     22463     22462     22464         0         1
     22466     22465     22467         0         1
     22469     22468     22470         0         1
     22472     22471     22473         0         1
     22475     22474     22476         0         1
     22478     22477     22479         0         1
     22481     22480     22482         0         1
     22484     22483     22485         0         1
     22487     22486     22488         0         1
     22490     22489     22491         0         1
     22493     22492     22494         0         1
     22496     22495     22497         0         1
     22499     22498     22500         0         1
     22502     22501     22503         0         1
     22505     22504     22506         0         1
     22508     22507     22509         0         1
     22511     22510     22512         0         1
     22514     22513     22515         0         1
     22517     22516     22518         0         1
     22520     22519     22521         0         1
     22523     22522     22524         0         1
     22526     22525     22527         0         1
     22529     22528     22530         0         1
     22532     22531     22533         0         1
     22535     22534     22536         0         1
     22538     22537     22539         0         1
     22541     22540     22542         0         1
     22544     22543     22545         0         1
     22547     22546     22548         0         1
     22550     22549     22551         0         1
     22553     22552     22554         0         1
     22556     22555     22557         0         1
     22559     22558     22560         0         1
     22562     22561     22563         0         1
     22565     22564     22566         0         1
     22568     22567     22569         0         1
     22571     22570     22572         0         1
     22574     22573     22575         0         1
     22577     22576     22578         0         1
     22580     22579     22581         0         1
     22583     22582     22584         0         1
     22586     22585     22587         0         1
     22589     22588     22590         0         1
     22592     22591     22593         0         1
     22595     22594     22596         0         1
     22598     22597     22599         0         1
     22601     22600     22602         0         1
     22604     22603     22605         0         1
     22607     22606     22608         0         1
     22610     22609     22611         0         1
     22613     22612     22614         0         1
     22616     22615     22617         0         1
     22619     22618     22620         0         1
     22622     22621     22623         0         1
     22625     22624     22626         0         1
     22628     22627     22629         0         1
     22631     22630     22632         0         1
     22634     22633     22635         0         1
     22637     22636     22638         0         1
     22640     22639     22641         0         1
     22643     22642     22644         0         1
     22646     22645     22647         0         1
     22649     22648     22650         0         1
     22652     22651     22653         0         1
     22655     22654     22656         0         1
     22658     22657     22659         0         1
     22661     22660     22662         0         1
     22664     22663     22665         0         1
     22667     22666     22668         0         1
     22670     22669     22671         0         1
     22673     22672     22674         0         1
     22676     22675     22677         0         1
     22679     22678     22680         0         1
     22682     22681     22683         0         1
     22685     22684     22686         0         1
     22688     22687     22689         0         1
     22691     22690     22692         0         1
     22694     22693     22695         0         1
     22697     22696     22698         0         1
     22700     22699     22701         0         1
     22703     22702     22704         0         1
     22706     22705     22707         0         1
     22709     22708     22710         0         1
     22712     22711     22713         0         1
     22715     22714     22716         0         1
     22718     22717     22719         0         1
     22721     22720     22722         0         1
     22724     22723     22725         0         1
     22727     22726     22728         0         1
     22730     22729     22731         0         1
     22733     22732     22734         0         1
     22736     22735     22737         0         1
     22739     22738     22740         0         1
     22742     22741     22743         0         1
     22745     22744     22746         0         1
     22748     22747     22749         0         1
     22751     22750     22752         0         1
     22754     22753     22755         0         1
     22757     22756     22758         0         1
     22760     22759     22761         0         1
     22763     22762     22764         0         1
     22766     22765     22767         0         1
     22769     22768     22770         0         1
     22772     22771     22773         0         1
     22775     22774     22776         0         1
     22778     22777     22779         0         1
     22781     22780     22782         0         1
     22784     22783     22785         0         1
     22787     22786     22788         0         1
     22790     22789     22791         0         1
     22793     22792     22794         0         1
     22796     22795     22797         0         1
     22799     22798     22800         0         1
     22802     22801     22803         0         1
     22805     22804     22806         0         1
     22808     22807     22809         0         1
     22811     22810     22812         0         1
     22814     22813     22815         0         1
     22817     22816     22818         0         1
     22820     22819     22821         0         1
     22823     22822     22824         0         1
     22826     22825     22827         0         1
     22829     22828     22830         0         1
     22832     22831     22833         0         1
     22835     22834     22836         0         1
     22838     22837     22839         0         1
     22841     22840     22842         0         1
     22844     22843     22845         0         1
     22847     22846     22848         0         1
     22850     22849     22851         0         1
     22853     22852     22854         0         1
     22856     22855     22857         0         1
     22859     22858     22860         0         1
     22862     22861     22863         0         1
     22865     22864     22866         0         1
     22868     22867     22869         0         1
     22871     22870     22872         0         1
     22874     22873     22875         0         1
     22877     22876     22878         0         1
     22880     22879     22881         0         1
     22883     22882     22884         0         1
     22886     22885     22887         0         1
     22889     22888     22890         0         1
     22892     22891     22893         0         1
     22895     22894     22896         0         1
     22898     22897     22899         0         1
     22901     22900     22902         0         1
     22904     22903     22905         0         1
     22907     22906     22908         0         1
     22910     22909     22911         0         1
     22913     22912     22914         0         1
     22916     22915     22917         0         1
     22919     22918     22920         0         1
     22922     22921     22923         0         1
     22925     22924     22926         0         1
     22928     22927     22929         0         1
     22931     22930     22932         0         1
     22934     22933     22935         0         1
     22937     22936     22938         0         1
     22940     22939     22941         0         1
     22943     22942     22944         0         1
     22946     22945     22947         0         1
     22949     22948     22950         0         1
     22952     22951     22953         0         1
     22955     22954     22956         0         1
     22958     22957     22959         0         1
     22961     22960     22962         0         1
     22964     22963     22965         0         1
     22967     22966     22968         0         1
     22970     22969     22971         0         1
     22973     22972     22974         0         1
     22976     22975     22977         0         1
     22979     22978     22980         0         1
     22982     22981     22983         0         1
     22985     22984     22986         0         1
     22988     22987     22989         0         1
     22991     22990     22992         0         1
     22994     22993     22995         0         1
     22997     22996     22998         0         1
     23000     22999     23001         0         1
     23003     23002     23004         0         1
     23006     23005     23007         0         1
     23009     23008     23010         0         1
     23012     23011     23013         0         1
     23015     23014     23016         0         1
     23018     23017     23019         0         1
     23021     23020     23022         0         1
     23024     23023     23025         0         1
     23027     23026     23028         0         1
     23030     23029     23031         0         1
     23033     23032     23034         0         1
     23036     23035     23037         0         1
     23039     23038     23040         0         1
     23042     23041     23043         0         1
     23045     23044     23046         0         1
     23048     23047     23049         0         1
     23051     23050     23052         0         1
     23054     23053     23055         0         1
     23057     23056     23058         0         1
     23060     23059     23061         0         1
     23063     23062     23064         0         1
     23066     23065     23067         0         1
     23069     23068     23070         0         1
     23072     23071     23073         0         1
     23075     23074     23076         0         1
     23078     23077     23079         0         1
     23081     23080     23082         0         1
     23084     23083     23085         0         1
     23087     23086     23088         0         1
     23090     23089     23091         0         1
     23093     23092     23094         0         1
     23096     23095     23097         0         1
     23099     23098     23100         0         1
     23102     23101     23103         0         1
     23105     23104     23106         0         1
     23108     23107     23109         0         1
     23111     23110     23112         0         1
     23114     23113     23115         0         1
     23117     23116     23118         0         1
     23120     23119     23121         0         1
     23123     23122     23124         0         1
     23126     23125     23127         0         1
     23129     23128     23130         0         1
     23132     23131     23133         0         1
     23135     23134     23136         0         1
     23138     23137     23139         0         1
     23141     23140     23142         0         1
     23144     23143     23145         0         1
     23147     23146     23148         0         1
     23150     23149     23151         0         1
     23153     23152     23154         0         1
     23156     23155     23157         0         1
     23159     23158     23160         0         1
     23162     23161     23163         0         1
     23165     23164     23166         0         1
     23168     23167     23169         0         1
     23171     23170     23172         0         1
     23174     23173     23175         0         1
     23177     23176     23178         0         1
     23180     23179     23181         0         1
     23183     23182     23184         0         1
     23186     23185     23187         0         1
     23189     23188     23190         0         1
     23192     23191     23193         0         1
     23195     23194     23196         0         1
     23198     23197     23199         0         1
     23201     23200     23202         0         1
     23204     23203     23205         0         1
     23207     23206     23208         0         1
     23210     23209     23211         0         1
     23213     23212     23214         0         1
     23216     23215     23217         0         1
     23219     23218     23220         0         1
     23222     23221     23223         0         1
     23225     23224     23226         0         1
     23228     23227     23229         0         1
     23231     23230     23232         0         1
     23234     23233     23235         0         1
     23237     23236     23238         0         1
     23240     23239     23241         0         1
     23243     23242     23244         0         1
     23246     23245     23247         0         1
     23249     23248     23250         0         1
     23252     23251     23253         0         1
     23255     23254     23256         0         1
     23258     23257     23259         0         1
     23261     23260     23262         0         1
     23264     23263     23265         0         1
     23267     23266     23268         0         1
     23270     23269     23271         0         1
     23273     23272     23274         0         1
     23276     23275     23277         0         1
     23279     23278     23280         0         1
     23282     23281     23283         0         1
     23285     23284     23286         0         1
     23288     23287     23289         0         1
     23291     23290     23292         0         1
     23294     23293     23295         0         1
     23297     23296     23298         0         1
     23300     23299     23301         0         1
     23303     23302     23304         0         1
     23306     23305     23307         0         1
     23309     23308     23310         0         1
     23312     23311     23313         0         1
     23315     23314     23316         0         1
     23318     23317     23319         0         1
     23321     23320     23322         0         1
     23324     23323     23325         0         1
     23327     23326     23328         0         1
     23330     23329     23331         0         1
     23333     23332     23334         0         1
     23336     23335     23337         0         1
     23339     23338     23340         0         1
     23342     23341     23343         0         1
     23345     23344     23346         0         1
     23348     23347     23349         0         1
     23351     23350     23352         0         1
     23354     23353     23355         0         1
     23357     23356     23358         0         1
     23360     23359     23361         0         1
     23363     23362     23364         0         1
     23366     23365     23367         0         1
     23369     23368     23370         0         1
     23372     23371     23373         0         1
     23375     23374     23376         0         1
     23378     23377     23379         0         1
     23381     23380     23382         0         1
     23384     23383     23385         0         1
     23387     23386     23388         0         1
     23390     23389     23391         0         1
     23393     23392     23394         0         1
     23396     23395     23397         0         1
     23399     23398     23400         0         1
     23402     23401     23403         0         1
     23405     23404     23406         0         1
     23408     23407     23409         0         1
     23411     23410     23412         0         1
     23414     23413     23415         0         1
     23417     23416     23418         0         1
     23420     23419     23421         0         1
     23423     23422     23424         0         1
     23426     23425     23427         0         1
     23429     23428     23430         0         1
     23432     23431     23433         0         1
     23435     23434     23436         0         1
     23438     23437     23439         0         1
     23441     23440     23442         0         1
     23444     23443     23445         0         1
     23447     23446     23448         0         1
     23450     23449     23451         0         1
     23453     23452     23454         0         1
     23456     23455     23457         0         1
     23459     23458     23460         0         1
     23462     23461     23463         0         1
     23465     23464     23466         0         1
     23468     23467     23469         0         1
     23471     23470     23472         0         1
     23474     23473     23475         0         1
     23477     23476     23478         0         1
     23480     23479     23481         0         1
     23483     23482     23484         0         1
     23486     23485     23487         0         1
     23489     23488     23490         0         1
     23492     23491     23493         0         1
     23495     23494     23496         0         1
     23498     23497     23499         0         1
     23501     23500     23502         0         1
     23504     23503     23505         0         1
     23507     23506     23508         0         1
     23510     23509     23511         0         1
     23513     23512     23514         0         1
     23516     23515     23517         0         1
     23519     23518     23520         0         1
     23522     23521     23523         0         1
     23525     23524     23526         0         1
     23528     23527     23529         0         1
     23531     23530     23532         0         1
     23534     23533     23535         0         1
     23537     23536     23538         0         1
     23540     23539     23541         0         1
     23543     23542     23544         0         1
     23546     23545     23547         0         1
     23549     23548     23550         0         1
     23552     23551     23553         0         1
     23555     23554     23556         0         1
     23558     23557     23559         0         1
     23561     23560     23562         0         1
     23564     23563     23565         0         1
     23567     23566     23568         0         1
     23570     23569     23571         0         1
     23573     23572     23574         0         1
     23576     23575     23577         0         1
     23579     23578     23580         0         1
     23582     23581     23583         0         1
     23585     23584     23586         0         1
     23588     23587     23589         0         1
     23591     23590     23592         0         1
     23594     23593     23595         0         1
     23597     23596     23598         0         1
     23600     23599     23601         0         1
     23603     23602     23604         0         1
     23606     23605     23607         0         1
     23609     23608     23610         0         1
     23612     23611     23613         0         1
     23615     23614     23616         0         1
     23618     23617     23619         0         1
     23621     23620     23622         0         1
     23624     23623     23625         0         1
     23627     23626     23628         0         1
     23630     23629     23631         0         1
     23633     23632     23634         0         1
     23636     23635     23637         0         1
     23639     23638     23640         0         1
     23642     23641     23643         0         1
     23645     23644     23646         0         1
     23648     23647     23649         0         1
     23651     23650     23652         0         1
     23654     23653     23655         0         1
     23657     23656     23658         0         1
     23660     23659     23661         0         1
     23663     23662     23664         0         1
     23666     23665     23667         0         1
     23669     23668     23670         0         1
     23672     23671     23673         0         1
     23675     23674     23676         0         1
     23678     23677     23679         0         1
     23681     23680     23682         0         1
     23684     23683     23685         0         1
     23687     23686     23688         0         1
     23690     23689     23691         0         1
     23693     23692     23694         0         1
     23696     23695     23697         0         1
     23699     23698     23700         0         1
     23702     23701     23703         0         1
     23705     23704     23706         0         1
     23708     23707     23709         0         1
     23711     23710     23712         0         1
     23714     23713     23715         0         1
     23717     23716     23718         0         1
     23720     23719     23721         0         1
     23723     23722     23724         0         1
     23726     23725     23727         0         1
     23729     23728     23730         0         1
     23732     23731     23733         0         1
     23735     23734     23736         0         1
     23738     23737     23739         0         1
     23741     23740     23742         0         1
     23744     23743     23745         0         1
     23747     23746     23748         0         1
     23750     23749     23751         0         1
     23753     23752     23754         0         1
     23756     23755     23757         0         1
     23759     23758     23760         0         1
     23762     23761     23763         0         1
     23765     23764     23766         0         1
     23768     23767     23769         0         1
     23771     23770     23772         0         1
     23774     23773     23775         0         1
     23777     23776     23778         0         1
     23780     23779     23781         0         1
     23783     23782     23784         0         1
     23786     23785     23787         0         1
     23789     23788     23790         0         1
     23792     23791     23793         0         1
     23795     23794     23796         0         1
     23798     23797     23799         0         1
     23801     23800     23802         0         1
     23804     23803     23805         0         1
     23807     23806     23808         0         1
     23810     23809     23811         0         1
     23813     23812     23814         0         1
     23816     23815     23817         0         1
     23819     23818     23820         0         1
     23822     23821     23823         0         1
     23825     23824     23826         0         1
     23828     23827     23829         0         1
     23831     23830     23832         0         1
     23834     23833     23835         0         1
     23837     23836     23838         0         1
     23840     23839     23841         0         1
     23843     23842     23844         0         1
     23846     23845     23847         0         1
     23849     23848     23850         0         1
     23852     23851     23853         0         1
     23855     23854     23856         0         1
     23858     23857     23859         0         1
     23861     23860     23862         0         1
     23864     23863     23865         0         1
     23867     23866     23868         0         1
     23870     23869     23871         0         1
     23873     23872     23874         0         1
     23876     23875     23877         0         1
     23879     23878     23880         0         1
     23882     23881     23883         0         1
     23885     23884     23886         0         1
     23888     23887     23889         0         1
     23891     23890     23892         0         1
     23894     23893     23895         0         1
     23897     23896     23898         0         1
     23900     23899     23901         0         1
     23903     23902     23904         0         1
     23906     23905     23907         0         1
     23909     23908     23910         0         1
     23912     23911     23913         0         1
     23915     23914     23916         0         1
     23918     23917     23919         0         1
     23921     23920     23922         0         1
     23924     23923     23925         0         1
     23927     23926     23928         0         1
     23930     23929     23931         0         1
     23933     23932     23934         0         1
     23936     23935     23937         0         1
     23939     23938     23940         0         1
     23942     23941     23943         0         1
     23945     23944     23946         0         1
     23948     23947     23949         0         1
     23951     23950     23952         0         1
     23954     23953     23955         0         1
     23957     23956     23958         0         1
     23960     23959     23961         0         1
     23963     23962     23964         0         1
     23966     23965     23967         0         1
     23969     23968     23970         0         1
     23972     23971     23973         0         1
     23975     23974     23976         0         1
     23978     23977     23979         0         1
     23981     23980     23982         0         1
     23984     23983     23985         0         1
     23987     23986     23988         0         1
     23990     23989     23991         0         1
     23993     23992     23994         0         1
     23996     23995     23997         0         1
     23999     23998     24000         0         1
     24002     24001     24003         0         1
     24005     24004     24006         0         1
     24008     24007     24009         0         1
     24011     24010     24012         0         1
     24014     24013     24015         0         1
     24017     24016     24018         0         1
     24020     24019     24021         0         1
     24023     24022     24024         0         1
     24026     24025     24027         0         1
     24029     24028     24030         0         1
     24032     24031     24033         0         1
     24035     24034     24036         0         1
     24038     24037     24039         0         1
     24041     24040     24042         0         1
     24044     24043     24045         0         1
     24047     24046     24048         0         1
     24050     24049     24051         0         1
     24053     24052     24054         0         1
     24056     24055     24057         0         1
     24059     24058     24060         0         1
     24062     24061     24063         0         1
     24065     24064     24066         0         1
     24068     24067     24069         0         1
     24071     24070     24072         0         1
     24074     24073     24075         0         1
     24077     24076     24078         0         1
     24080     24079     24081         0         1
     24083     24082     24084         0         1
     24086     24085     24087         0         1
     24089     24088     24090         0         1
     24092     24091     24093         0         1
     24095     24094     24096         0         1
     24098     24097     24099         0         1
     24101     24100     24102         0         1
     24104     24103     24105         0         1
     24107     24106     24108         0         1
     24110     24109     24111         0         1
     24113     24112     24114         0         1
     24116     24115     24117         0         1
     24119     24118     24120         0         1
     24122     24121     24123         0         1
     24125     24124     24126         0         1
     24128     24127     24129         0         1
     24131     24130     24132         0         1
     24134     24133     24135         0         1
     24137     24136     24138         0         1
     24140     24139     24141         0         1
     24143     24142     24144         0         1
     24146     24145     24147         0         1
     24149     24148     24150         0         1
     24152     24151     24153         0         1
     24155     24154     24156         0         1
     24158     24157     24159         0         1
     24161     24160     24162         0         1
     24164     24163     24165         0         1
     24167     24166     24168         0         1
     24170     24169     24171         0         1
     24173     24172     24174         0         1
     24176     24175     24177         0         1
     24179     24178     24180         0         1
     24182     24181     24183         0         1
     24185     24184     24186         0         1
     24188     24187     24189         0         1
     24191     24190     24192         0         1
     24194     24193     24195         0         1
     24197     24196     24198         0         1
     24200     24199     24201         0         1
     24203     24202     24204         0         1
     24206     24205     24207         0         1
     24209     24208     24210         0         1
     24212     24211     24213         0         1
     24215     24214     24216         0         1
     24218     24217     24219         0         1
     24221     24220     24222         0         1
     24224     24223     24225         0         1
     24227     24226     24228         0         1
     24230     24229     24231         0         1
     24233     24232     24234         0         1
     24236     24235     24237         0         1
     24239     24238     24240         0         1
     24242     24241     24243         0         1
     24245     24244     24246         0         1
     24248     24247     24249         0         1
     24251     24250     24252         0         1
     24254     24253     24255         0         1
     24257     24256     24258         0         1
     24260     24259     24261         0         1
     24263     24262     24264         0         1
     24266     24265     24267         0         1
     24269     24268     24270         0         1
     24272     24271     24273         0         1
     24275     24274     24276         0         1
     24278     24277     24279         0         1
     24281     24280     24282         0         1
     24284     24283     24285         0         1
     24287     24286     24288         0         1
     24290     24289     24291         0         1
     24293     24292     24294         0         1
     24296     24295     24297         0         1
     24299     24298     24300         0         1
     24302     24301     24303         0         1
     24305     24304     24306         0         1
     24308     24307     24309         0         1
     24311     24310     24312         0         1
     24314     24313     24315         0         1
     24317     24316     24318         0         1
     24320     24319     24321         0         1
     24323     24322     24324         0         1
     24326     24325     24327         0         1
     24329     24328     24330         0         1
     24332     24331     24333         0         1
     24335     24334     24336         0         1
     24338     24337     24339         0         1
     24341     24340     24342         0         1
     24344     24343     24345         0         1
     24347     24346     24348         0         1
     24350     24349     24351         0         1
     24353     24352     24354         0         1
     24356     24355     24357         0         1
     24359     24358     24360         0         1
     24362     24361     24363         0         1
     24365     24364     24366         0         1
     24368     24367     24369         0         1
     24371     24370     24372         0         1
     24374     24373     24375         0         1
     24377     24376     24378         0         1
     24380     24379     24381         0         1
     24383     24382     24384         0         1
     24386     24385     24387         0         1
     24389     24388     24390         0         1
     24392     24391     24393         0         1
     24395     24394     24396         0         1
     24398     24397     24399         0         1
     24401     24400     24402         0         1
     24404     24403     24405         0         1
     24407     24406     24408         0         1
     24410     24409     24411         0         1
     24413     24412     24414         0         1
     24416     24415     24417         0         1
     24419     24418     24420         0         1
     24422     24421     24423         0         1
     24425     24424     24426         0         1
     24428     24427     24429         0         1
     24431     24430     24432         0         1
     24434     24433     24435         0         1
     24437     24436     24438         0         1
     24440     24439     24441         0         1
     24443     24442     24444         0         1
     24446     24445     24447         0         1
     24449     24448     24450         0         1
     24452     24451     24453         0         1
     24455     24454     24456         0         1
     24458     24457     24459         0         1
     24461     24460     24462         0         1
     24464     24463     24465         0         1
     24467     24466     24468         0         1
     24470     24469     24471         0         1
     24473     24472     24474         0         1
     24476     24475     24477         0         1
     24479     24478     24480         0         1
     24482     24481     24483         0         1
     24485     24484     24486         0         1
     24488     24487     24489         0         1
     24491     24490     24492         0         1
     24494     24493     24495         0         1
     24497     24496     24498         0         1
     24500     24499     24501         0         1
     24503     24502     24504         0         1
     24506     24505     24507         0         1
     24509     24508     24510         0         1
     24512     24511     24513         0         1
     24515     24514     24516         0         1
     24518     24517     24519         0         1
     24521     24520     24522         0         1
     24524     24523     24525         0         1
     24527     24526     24528         0         1
     24530     24529     24531         0         1
     24533     24532     24534         0         1
     24536     24535     24537         0         1
     24539     24538     24540         0         1
     24542     24541     24543         0         1
     24545     24544     24546         0         1
     24548     24547     24549         0         1
     24551     24550     24552         0         1
     24554     24553     24555         0         1
     24557     24556     24558         0         1
     24560     24559     24561         0         1
     24563     24562     24564         0         1
     24566     24565     24567         0         1
     24569     24568     24570         0         1
     24572     24571     24573         0         1
     24575     24574     24576         0         1
     24578     24577     24579         0         1
     24581     24580     24582         0         1
     24584     24583     24585         0         1
     24587     24586     24588         0         1
     24590     24589     24591         0         1
     24593     24592     24594         0         1
     24596     24595     24597         0         1
     24599     24598     24600         0         1
     24602     24601     24603         0         1
     24605     24604     24606         0         1
     24608     24607     24609         0         1
     24611     24610     24612         0         1
     24614     24613     24615         0         1
     24617     24616     24618         0         1
     24620     24619     24621         0         1
     24623     24622     24624         0         1
     24626     24625     24627         0         1
     24629     24628     24630         0         1
     24632     24631     24633         0         1
     24635     24634     24636         0         1
     24638     24637     24639         0         1
     24641     24640     24642         0         1
     24644     24643     24645         0         1
     24647     24646     24648         0         1
     24650     24649     24651         0         1
     24653     24652     24654         0         1
     24656     24655     24657         0         1
     24659     24658     24660         0         1
     24662     24661     24663         0         1
     24665     24664     24666         0         1
     24668     24667     24669         0         1
     24671     24670     24672         0         1
     24674     24673     24675         0         1
     24677     24676     24678         0         1
     24680     24679     24681         0         1
     24683     24682     24684         0         1
     24686     24685     24687         0         1
     24689     24688     24690         0         1
     24692     24691     24693         0         1
     24695     24694     24696         0         1
     24698     24697     24699         0         1
     24701     24700     24702         0         1
     24704     24703     24705         0         1
     24707     24706     24708         0         1
     24710     24709     24711         0         1
     24713     24712     24714         0         1
     24716     24715     24717         0         1
     24719     24718     24720         0         1
     24722     24721     24723         0         1
     24725     24724     24726         0         1
     24728     24727     24729         0         1
     24731     24730     24732         0         1
     24734     24733     24735         0         1
     24737     24736     24738         0         1
     24740     24739     24741         0         1
     24743     24742     24744         0         1
     24746     24745     24747         0         1
     24749     24748     24750         0         1
     24752     24751     24753         0         1
     24755     24754     24756         0         1
     24758     24757     24759         0         1
     24761     24760     24762         0         1
     24764     24763     24765         0         1
     24767     24766     24768         0         1
     24770     24769     24771         0         1
     24773     24772     24774         0         1
     24776     24775     24777         0         1
     24779     24778     24780         0         1
     24782     24781     24783         0         1
     24785     24784     24786         0         1
     24788     24787     24789         0         1
     24791     24790     24792         0         1
     24794     24793     24795         0         1
     24797     24796     24798         0         1
     24800     24799     24801         0         1
     24803     24802     24804         0         1
     24806     24805     24807         0         1
     24809     24808     24810         0         1
     24812     24811     24813         0         1
     24815     24814     24816         0         1
     24818     24817     24819         0         1
     24821     24820     24822         0         1
     24824     24823     24825         0         1
     24827     24826     24828         0         1
     24830     24829     24831         0         1
     24833     24832     24834         0         1
     24836     24835     24837         0         1
     24839     24838     24840         0         1
     24842     24841     24843         0         1
     24845     24844     24846         0         1
     24848     24847     24849         0         1
     24851     24850     24852         0         1
     24854     24853     24855         0         1
     24857     24856     24858         0         1
     24860     24859     24861         0         1
     24863     24862     24864         0         1
     24866     24865     24867         0         1
     24869     24868     24870         0         1
     24872     24871     24873         0         1
     24875     24874     24876         0         1
     24878     24877     24879         0         1
     24881     24880     24882         0         1
     24884     24883     24885         0         1
     24887     24886     24888         0         1
     24890     24889     24891         0         1
     24893     24892     24894         0         1
     24896     24895     24897         0         1
     24899     24898     24900         0         1
     24902     24901     24903         0         1
     24905     24904     24906         0         1
     24908     24907     24909         0         1
     24911     24910     24912         0         1
     24914     24913     24915         0         1
     24917     24916     24918         0         1
     24920     24919     24921         0         1
     24923     24922     24924         0         1
     24926     24925     24927         0         1
     24929     24928     24930         0         1
     24932     24931     24933         0         1
     24935     24934     24936         0         1
     24938     24937     24939         0         1
     24941     24940     24942         0         1
     24944     24943     24945         0         1
     24947     24946     24948         0         1
     24950     24949     24951         0         1
     24953     24952     24954         0         1
     24956     24955     24957         0         1
     24959     24958     24960         0         1
     24962     24961     24963         0         1
     24965     24964     24966         0         1
     24968     24967     24969         0         1
     24971     24970     24972         0         1
     24974     24973     24975         0         1
     24977     24976     24978         0         1
     24980     24979     24981         0         1
     24983     24982     24984         0         1
     24986     24985     24987         0         1
     24989     24988     24990         0         1
     24992     24991     24993         0         1
     24995     24994     24996         0         1
     24998     24997     24999         0         1
     25001     25000     25002         0         1
     25004     25003     25005         0         1
     25007     25006     25008         0         1
     25010     25009     25011         0         1
     25013     25012     25014         0         1
     25016     25015     25017         0         1
     25019     25018     25020         0         1
     25022     25021     25023         0         1
     25025     25024     25026         0         1
     25028     25027     25029         0         1
     25031     25030     25032         0         1
     25034     25033     25035         0         1
     25037     25036     25038         0         1
     25040     25039     25041         0         1
     25043     25042     25044         0         1
     25046     25045     25047         0         1
     25049     25048     25050         0         1
     25052     25051     25053         0         1
     25055     25054     25056         0         1
     25058     25057     25059         0         1
     25061     25060     25062         0         1
     25064     25063     25065         0         1
     25067     25066     25068         0         1
     25070     25069     25071         0         1
     25073     25072     25074         0         1
     25076     25075     25077         0         1
     25079     25078     25080         0         1
     25082     25081     25083         0         1
     25085     25084     25086         0         1
     25088     25087     25089         0         1
     25091     25090     25092         0         1
     25094     25093     25095         0         1
     25097     25096     25098         0         1
     25100     25099     25101         0         1
     25103     25102     25104         0         1
     25106     25105     25107         0         1
     25109     25108     25110         0         1
     25112     25111     25113         0         1
     25115     25114     25116         0         1
     25118     25117     25119         0         1
     25121     25120     25122         0         1
     25124     25123     25125         0         1
     25127     25126     25128         0         1
     25130     25129     25131         0         1
     25133     25132     25134         0         1
     25136     25135     25137         0         1
     25139     25138     25140         0         1
     25142     25141     25143         0         1
     25145     25144     25146         0         1
     25148     25147     25149         0         1
     25151     25150     25152         0         1
     25154     25153     25155         0         1
     25157     25156     25158         0         1
     25160     25159     25161         0         1
     25163     25162     25164         0         1
     25166     25165     25167         0         1
     25169     25168     25170         0         1
     25172     25171     25173         0         1
     25175     25174     25176         0         1
     25178     25177     25179         0         1
     25181     25180     25182         0         1
     25184     25183     25185         0         1
     25187     25186     25188         0         1
     25190     25189     25191         0         1
     25193     25192     25194         0         1
     25196     25195     25197         0         1
     25199     25198     25200         0         1
     25202     25201     25203         0         1
     25205     25204     25206         0         1
     25208     25207     25209         0         1
     25211     25210     25212         0         1
     25214     25213     25215         0         1
     25217     25216     25218         0         1
     25220     25219     25221         0         1
     25223     25222     25224         0         1
     25226     25225     25227         0         1
     25229     25228     25230         0         1
     25232     25231     25233         0         1
     25235     25234     25236         0         1
     25238     25237     25239         0         1
     25241     25240     25242         0         1
     25244     25243     25245         0         1
     25247     25246     25248         0         1
     25250     25249     25251         0         1
     25253     25252     25254         0         1
     25256     25255     25257         0         1
     25259     25258     25260         0         1
     25262     25261     25263         0         1
     25265     25264     25266         0         1
     25268     25267     25269         0         1
     25271     25270     25272         0         1
     25274     25273     25275         0         1
     25277     25276     25278         0         1
     25280     25279     25281         0         1
     25283     25282     25284         0         1
     25286     25285     25287         0         1
     25289     25288     25290         0         1
     25292     25291     25293         0         1
     25295     25294     25296         0         1
     25298     25297     25299         0         1
     25301     25300     25302         0         1
     25304     25303     25305         0         1
     25307     25306     25308         0         1
     25310     25309     25311         0         1
     25313     25312     25314         0         1
     25316     25315     25317         0         1
     25319     25318     25320         0         1
     25322     25321     25323         0         1
     25325     25324     25326         0         1
     25328     25327     25329         0         1
     25331     25330     25332         0         1
     25334     25333     25335         0         1
     25337     25336     25338         0         1
     25340     25339     25341         0         1
     25343     25342     25344         0         1
     25346     25345     25347         0         1
     25349     25348     25350         0         1
     25352     25351     25353         0         1
     25355     25354     25356         0         1
     25358     25357     25359         0         1
     25361     25360     25362         0         1
     25364     25363     25365         0         1
     25367     25366     25368         0         1
     25370     25369     25371         0         1
     25373     25372     25374         0         1
     25376     25375     25377         0         1
     25379     25378     25380         0         1
     25382     25381     25383         0         1
     25385     25384     25386         0         1
     25388     25387     25389         0         1
     25391     25390     25392         0         1
     25394     25393     25395         0         1
     25397     25396     25398         0         1
     25400     25399     25401         0         1
     25403     25402     25404         0         1
     25406     25405     25407         0         1
     25409     25408     25410         0         1
     25412     25411     25413         0         1
     25415     25414     25416         0         1
     25418     25417     25419         0         1
     25421     25420     25422         0         1
     25424     25423     25425         0         1
     25427     25426     25428         0         1
     25430     25429     25431         0         1
     25433     25432     25434         0         1
     25436     25435     25437         0         1
     25439     25438     25440         0         1
     25442     25441     25443         0         1
     25445     25444     25446         0         1
     25448     25447     25449         0         1
     25451     25450     25452         0         1
     25454     25453     25455         0         1
     25457     25456     25458         0         1
     25460     25459     25461         0         1
     25463     25462     25464         0         1
     25466     25465     25467         0         1
     25469     25468     25470         0         1
     25472     25471     25473         0         1
     25475     25474     25476         0         1
     25478     25477     25479         0         1
     25481     25480     25482         0         1
     25484     25483     25485         0         1
     25487     25486     25488         0         1
     25490     25489     25491         0         1
     25493     25492     25494         0         1
     25496     25495     25497         0         1
     25499     25498     25500         0         1
     25502     25501     25503         0         1
     25505     25504     25506         0         1
     25508     25507     25509         0         1
     25511     25510     25512         0         1
     25514     25513     25515         0         1
     25517     25516     25518         0         1
     25520     25519     25521         0         1
     25523     25522     25524         0         1
     25526     25525     25527         0         1
     25529     25528     25530         0         1
     25532     25531     25533         0         1
     25535     25534     25536         0         1
     25538     25537     25539         0         1
     25541     25540     25542         0         1
     25544     25543     25545         0         1
     25547     25546     25548         0         1
     25550     25549     25551         0         1
     25553     25552     25554         0         1
     25556     25555     25557         0         1
     25559     25558     25560         0         1
     25562     25561     25563         0         1
     25565     25564     25566         0         1
     25568     25567     25569         0         1
     25571     25570     25572         0         1
     25574     25573     25575         0         1
     25577     25576     25578         0         1
     25580     25579     25581         0         1
     25583     25582     25584         0         1
     25586     25585     25587         0         1
     25589     25588     25590         0         1
     25592     25591     25593         0         1
     25595     25594     25596         0         1
     25598     25597     25599         0         1
     25601     25600     25602         0         1
     25604     25603     25605         0         1
     25607     25606     25608         0         1
     25610     25609     25611         0         1
     25613     25612     25614         0         1
     25616     25615     25617         0         1
     25619     25618     25620         0         1
     25622     25621     25623         0         1
     25625     25624     25626         0         1
     25628     25627     25629         0         1
     25631     25630     25632         0         1
     25634     25633     25635         0         1
     25637     25636     25638         0         1
     25640     25639     25641         0         1
     25643     25642     25644         0         1
     25646     25645     25647         0         1
     25649     25648     25650         0         1
     25652     25651     25653         0         1
     25655     25654     25656         0         1
     25658     25657     25659         0         1
     25661     25660     25662         0         1
     25664     25663     25665         0         1
     25667     25666     25668         0         1
     25670     25669     25671         0         1
     25673     25672     25674         0         1
     25676     25675     25677         0         1
     25679     25678     25680         0         1
     25682     25681     25683         0         1
     25685     25684     25686         0         1
     25688     25687     25689         0         1
     25691     25690     25692         0         1
     25694     25693     25695         0         1
     25697     25696     25698         0         1
     25700     25699     25701         0         1
     25703     25702     25704         0         1
     25706     25705     25707         0         1
     25709     25708     25710         0         1
     25712     25711     25713         0         1
     25715     25714     25716         0         1
     25718     25717     25719         0         1
     25721     25720     25722         0         1
     25724     25723     25725         0         1
     25727     25726     25728         0         1
     25730     25729     25731         0         1
     25733     25732     25734         0         1
     25736     25735     25737         0         1
     25739     25738     25740         0         1
     25742     25741     25743         0         1
     25745     25744     25746         0         1
     25748     25747     25749         0         1
     25751     25750     25752         0         1
     25754     25753     25755         0         1
     25757     25756     25758         0         1
     25760     25759     25761         0         1
     25763     25762     25764         0         1
     25766     25765     25767         0         1
     25769     25768     25770         0         1
     25772     25771     25773         0         1
     25775     25774     25776         0         1
     25778     25777     25779         0         1
     25781     25780     25782         0         1
     25784     25783     25785         0         1
     25787     25786     25788         0         1
     25790     25789     25791         0         1
     25793     25792     25794         0         1
     25796     25795     25797         0         1
     25799     25798     25800         0         1
     25802     25801     25803         0         1
     25805     25804     25806         0         1
     25808     25807     25809         0         1
     25811     25810     25812         0         1
     25814     25813     25815         0         1
     25817     25816     25818         0         1
     25820     25819     25821         0         1
     25823     25822     25824         0         1
     25826     25825     25827         0         1
     25829     25828     25830         0         1
     25832     25831     25833         0         1
     25835     25834     25836         0         1
     25838     25837     25839         0         1
     25841     25840     25842         0         1
     25844     25843     25845         0         1
     25847     25846     25848         0         1
     25850     25849     25851         0         1
     25853     25852     25854         0         1
     25856     25855     25857         0         1
     25859     25858     25860         0         1
     25862     25861     25863         0         1
     25865     25864     25866         0         1
     25868     25867     25869         0         1
     25871     25870     25872         0         1
     25874     25873     25875         0         1
     25877     25876     25878         0         1
     25880     25879     25881         0         1
     25883     25882     25884         0         1
     25886     25885     25887         0         1
     25889     25888     25890         0         1
     25892     25891     25893         0         1
     25895     25894     25896         0         1
     25898     25897     25899         0         1
     25901     25900     25902         0         1
     25904     25903     25905         0         1
     25907     25906     25908         0         1
     25910     25909     25911         0         1
     25913     25912     25914         0         1
     25916     25915     25917         0         1
     25919     25918     25920         0         1
     25922     25921     25923         0         1
     25925     25924     25926         0         1
     25928     25927     25929         0         1
     25931     25930     25932         0         1
     25934     25933     25935         0         1
     25937     25936     25938         0         1
     25940     25939     25941         0         1
     25943     25942     25944         0         1
     25946     25945     25947         0         1
     25949     25948     25950         0         1
     25952     25951     25953         0         1
     25955     25954     25956         0         1
     25958     25957     25959         0         1
     25961     25960     25962         0         1
     25964     25963     25965         0         1
     25967     25966     25968         0         1
     25970     25969     25971         0         1
     25973     25972     25974         0         1
     25976     25975     25977         0         1
     25979     25978     25980         0         1
     25982     25981     25983         0         1
     25985     25984     25986         0         1
     25988     25987     25989         0         1
     25991     25990     25992         0         1
     25994     25993     25995         0         1
     25997     25996     25998         0         1
     26000     25999     26001         0         1
     26003     26002     26004         0         1
     26006     26005     26007         0         1
     26009     26008     26010         0         1
     26012     26011     26013         0         1
     26015     26014     26016         0         1
     26018     26017     26019         0         1
     26021     26020     26022         0         1
     26024     26023     26025         0         1
     26027     26026     26028         0         1
     26030     26029     26031         0         1
     26033     26032     26034         0         1
     26036     26035     26037         0         1
     26039     26038     26040         0         1
     26042     26041     26043         0         1
     26045     26044     26046         0         1
     26048     26047     26049         0         1
     26051     26050     26052         0         1
     26054     26053     26055         0         1
     26057     26056     26058         0         1
     26060     26059     26061         0         1
     26063     26062     26064         0         1
     26066     26065     26067         0         1
     26069     26068     26070         0         1
     26072     26071     26073         0         1
     26075     26074     26076         0         1
     26078     26077     26079         0         1
     26081     26080     26082         0         1
     26084     26083     26085         0         1
     26087     26086     26088         0         1
     26090     26089     26091         0         1
     26093     26092     26094         0         1
     26096     26095     26097         0         1
     26099     26098     26100         0         1
     26102     26101     26103         0         1
     26105     26104     26106         0         1
     26108     26107     26109         0         1
     26111     26110     26112         0         1
     26114     26113     26115         0         1
     26117     26116     26118         0         1
     26120     26119     26121         0         1
     26123     26122     26124         0         1
     26126     26125     26127         0         1
     26129     26128     26130         0         1
     26132     26131     26133         0         1
     26135     26134     26136         0         1
     26138     26137     26139         0         1
     26141     26140     26142         0         1
     26144     26143     26145         0         1
     26147     26146     26148         0         1
     26150     26149     26151         0         1
     26153     26152     26154         0         1
     26156     26155     26157         0         1
     26159     26158     26160         0         1
     26162     26161     26163         0         1
     26165     26164     26166         0         1
     26168     26167     26169         0         1
     26171     26170     26172         0         1
     26174     26173     26175         0         1
     26177     26176     26178         0         1
     26180     26179     26181         0         1
     26183     26182     26184         0         1
     26186     26185     26187         0         1
     26189     26188     26190         0         1
     26192     26191     26193         0         1
     26195     26194     26196         0         1
     26198     26197     26199         0         1
     26201     26200     26202         0         1
     26204     26203     26205         0         1
     26207     26206     26208         0         1
     26210     26209     26211         0         1
     26213     26212     26214         0         1
     26216     26215     26217         0         1
     26219     26218     26220         0         1
     26222     26221     26223         0         1
     26225     26224     26226         0         1
     26228     26227     26229         0         1
     26231     26230     26232         0         1
     26234     26233     26235         0         1
     26237     26236     26238         0         1
     26240     26239     26241         0         1
     26243     26242     26244         0         1
     26246     26245     26247         0         1
     26249     26248     26250         0         1
     26252     26251     26253         0         1
     26255     26254     26256         0         1
     26258     26257     26259         0         1
     26261     26260     26262         0         1
     26264     26263     26265         0         1
     26267     26266     26268         0         1
     26270     26269     26271         0         1
     26273     26272     26274         0         1
     26276     26275     26277         0         1
     26279     26278     26280         0         1
     26282     26281     26283         0         1
     26285     26284     26286         0         1
     26288     26287     26289         0         1
     26291     26290     26292         0         1
     26294     26293     26295         0         1
     26297     26296     26298         0         1
     26300     26299     26301         0         1
     26303     26302     26304         0         1
     26306     26305     26307         0         1
     26309     26308     26310         0         1
     26312     26311     26313         0         1
     26315     26314     26316         0         1
     26318     26317     26319         0         1
     26321     26320     26322         0         1
     26324     26323     26325         0         1
     26327     26326     26328         0         1
     26330     26329     26331         0         1
     26333     26332     26334         0         1
     26336     26335     26337         0         1
     26339     26338     26340         0         1
     26342     26341     26343         0         1
     26345     26344     26346         0         1
     26348     26347     26349         0         1
     26351     26350     26352         0         1
     26354     26353     26355         0         1
     26357     26356     26358         0         1
     26360     26359     26361         0         1
     26363     26362     26364         0         1
     26366     26365     26367         0         1
     26369     26368     26370         0         1
     26372     26371     26373         0         1
     26375     26374     26376         0         1
     26378     26377     26379         0         1
     26381     26380     26382         0         1
     26384     26383     26385         0         1
     26387     26386     26388         0         1
     26390     26389     26391         0         1
     26393     26392     26394         0         1
     26396     26395     26397         0         1
     26399     26398     26400         0         1
     26402     26401     26403         0         1
     26405     26404     26406         0         1
     26408     26407     26409         0         1
     26411     26410     26412         0         1
     26414     26413     26415         0         1
     26417     26416     26418         0         1
     26420     26419     26421         0         1
     26423     26422     26424         0         1
     26426     26425     26427         0         1
     26429     26428     26430         0         1
     26432     26431     26433         0         1
     26435     26434     26436         0         1
     26438     26437     26439         0         1
     26441     26440     26442         0         1
     26444     26443     26445         0         1
     26447     26446     26448         0         1
     26450     26449     26451         0         1
     26453     26452     26454         0         1
     26456     26455     26457         0         1
     26459     26458     26460         0         1
     26462     26461     26463         0         1
     26465     26464     26466         0         1
     26468     26467     26469         0         1
     26471     26470     26472         0         1
     26474     26473     26475         0         1
     26477     26476     26478         0         1
     26480     26479     26481         0         1
     26483     26482     26484         0         1
     26486     26485     26487         0         1
     26489     26488     26490         0         1
     26492     26491     26493         0         1
     26495     26494     26496         0         1
     26498     26497     26499         0         1
     26501     26500     26502         0         1
     26504     26503     26505         0         1
     26507     26506     26508         0         1
     26510     26509     26511         0         1
     26513     26512     26514         0         1
     26516     26515     26517         0         1
     26519     26518     26520         0         1
     26522     26521     26523         0         1
     26525     26524     26526         0         1
     26528     26527     26529         0         1
     26531     26530     26532         0         1
     26534     26533     26535         0         1
     26537     26536     26538         0         1
     26540     26539     26541         0         1
     26543     26542     26544         0         1
     26546     26545     26547         0         1
     26549     26548     26550         0         1
     26552     26551     26553         0         1
     26555     26554     26556         0         1
     26558     26557     26559         0         1
     26561     26560     26562         0         1
     26564     26563     26565         0         1
     26567     26566     26568         0         1
     26570     26569     26571         0         1
     26573     26572     26574         0         1
     26576     26575     26577         0         1
     26579     26578     26580         0         1
     26582     26581     26583         0         1
     26585     26584     26586         0         1
     26588     26587     26589         0         1
     26591     26590     26592         0         1
     26594     26593     26595         0         1
     26597     26596     26598         0         1
     26600     26599     26601         0         1
     26603     26602     26604         0         1
     26606     26605     26607         0         1
     26609     26608     26610         0         1
     26612     26611     26613         0         1
     26615     26614     26616         0         1
     26618     26617     26619         0         1
     26621     26620     26622         0         1
     26624     26623     26625         0         1
     26627     26626     26628         0         1
     26630     26629     26631         0         1
     26633     26632     26634         0         1
     26636     26635     26637         0         1
     26639     26638     26640         0         1
     26642     26641     26643         0         1
     26645     26644     26646         0         1
     26648     26647     26649         0         1
     26651     26650     26652         0         1
     26654     26653     26655         0         1
     26657     26656     26658         0         1
     26660     26659     26661         0         1
     26663     26662     26664         0         1
     26666     26665     26667         0         1
     26669     26668     26670         0         1
     26672     26671     26673         0         1
     26675     26674     26676         0         1
     26678     26677     26679         0         1
     26681     26680     26682         0         1
     26684     26683     26685         0         1
     26687     26686     26688         0         1
     26690     26689     26691         0         1
     26693     26692     26694         0         1
     26696     26695     26697         0         1
     26699     26698     26700         0         1
     26702     26701     26703         0         1
     26705     26704     26706         0         1
     26708     26707     26709         0         1
     26711     26710     26712         0         1
     26714     26713     26715         0         1
     26717     26716     26718         0         1
     26720     26719     26721         0         1
     26723     26722     26724         0         1
     26726     26725     26727         0         1
     26729     26728     26730         0         1
     26732     26731     26733         0         1
     26735     26734     26736         0         1
     26738     26737     26739         0         1
     26741     26740     26742         0         1
     26744     26743     26745         0         1
     26747     26746     26748         0         1
     26750     26749     26751         0         1
     26753     26752     26754         0         1
     26756     26755     26757         0         1
     26759     26758     26760         0         1
     26762     26761     26763         0         1
     26765     26764     26766         0         1
     26768     26767     26769         0         1
     26771     26770     26772         0         1
     26774     26773     26775         0         1
     26777     26776     26778         0         1
     26780     26779     26781         0         1
     26783     26782     26784         0         1
     26786     26785     26787         0         1
     26789     26788     26790         0         1
     26792     26791     26793         0         1
     26795     26794     26796         0         1
     26798     26797     26799         0         1
     26801     26800     26802         0         1
     26804     26803     26805         0         1
     26807     26806     26808         0         1
     26810     26809     26811         0         1
     26813     26812     26814         0         1
     26816     26815     26817         0         1
     26819     26818     26820         0         1
     26822     26821     26823         0         1
     26825     26824     26826         0         1
     26828     26827     26829         0         1
     26831     26830     26832         0         1
     26834     26833     26835         0         1
     26837     26836     26838         0         1
     26840     26839     26841         0         1
     26843     26842     26844         0         1
     26846     26845     26847         0         1
     26849     26848     26850         0         1
     26852     26851     26853         0         1
     26855     26854     26856         0         1
     26858     26857     26859         0         1
     26861     26860     26862         0         1
     26864     26863     26865         0         1
     26867     26866     26868         0         1
     26870     26869     26871         0         1
     26873     26872     26874         0         1
     26876     26875     26877         0         1
     26879     26878     26880         0         1
     26882     26881     26883         0         1
     26885     26884     26886         0         1
     26888     26887     26889         0         1
     26891     26890     26892         0         1
     26894     26893     26895         0         1
     26897     26896     26898         0         1
     26900     26899     26901         0         1
     26903     26902     26904         0         1
     26906     26905     26907         0         1
     26909     26908     26910         0         1
     26912     26911     26913         0         1
     26915     26914     26916         0         1
     26918     26917     26919         0         1
     26921     26920     26922         0         1
     26924     26923     26925         0         1
     26927     26926     26928         0         1
     26930     26929     26931         0         1
     26933     26932     26934         0         1
     26936     26935     26937         0         1
     26939     26938     26940         0         1
     26942     26941     26943         0         1
     26945     26944     26946         0         1
     26948     26947     26949         0         1
     26951     26950     26952         0         1
     26954     26953     26955         0         1
     26957     26956     26958         0         1
     26960     26959     26961         0         1
     26963     26962     26964         0         1
     26966     26965     26967         0         1
     26969     26968     26970         0         1
     26972     26971     26973         0         1
     26975     26974     26976         0         1
     26978     26977     26979         0         1
     26981     26980     26982         0         1
     26984     26983     26985         0         1
     26987     26986     26988         0         1
     26990     26989     26991         0         1
     26993     26992     26994         0         1
     26996     26995     26997         0         1
     26999     26998     27000         0         1
     27002     27001     27003         0         1
     27005     27004     27006         0         1
     27008     27007     27009         0         1
     27011     27010     27012         0         1
     27014     27013     27015         0         1
     27017     27016     27018         0         1
     27020     27019     27021         0         1
     27023     27022     27024         0         1
     27026     27025     27027         0         1
     27029     27028     27030         0         1
     27032     27031     27033         0         1
     27035     27034     27036         0         1
     27038     27037     27039         0         1
     27041     27040     27042         0         1
     27044     27043     27045         0         1
     27047     27046     27048         0         1
     27050     27049     27051         0         1
     27053     27052     27054         0         1
     27056     27055     27057         0         1
     27059     27058     27060         0         1
     27062     27061     27063         0         1
     27065     27064     27066         0         1
     27068     27067     27069         0         1
     27071     27070     27072         0         1
     27074     27073     27075         0         1
     27077     27076     27078         0         1
     27080     27079     27081         0         1
     27083     27082     27084         0         1
     27086     27085     27087         0         1
     27089     27088     27090         0         1
     27092     27091     27093         0         1
     27095     27094     27096         0         1
     27098     27097     27099         0         1
     27101     27100     27102         0         1
     27104     27103     27105         0         1
     27107     27106     27108         0         1
     27110     27109     27111         0         1
     27113     27112     27114         0         1
     27116     27115     27117         0         1
     27119     27118     27120         0         1
     27122     27121     27123         0         1
     27125     27124     27126         0         1
     27128     27127     27129         0         1
     27131     27130     27132         0         1
     27134     27133     27135         0         1
     27137     27136     27138         0         1
     27140     27139     27141         0         1
     27143     27142     27144         0         1
     27146     27145     27147         0         1
     27149     27148     27150         0         1
     27152     27151     27153         0         1
     27155     27154     27156         0         1
     27158     27157     27159         0         1
     27161     27160     27162         0         1
     27164     27163     27165         0         1
     27167     27166     27168         0         1
     27170     27169     27171         0         1
     27173     27172     27174         0         1
     27176     27175     27177         0         1
     27179     27178     27180         0         1
     27182     27181     27183         0         1
     27185     27184     27186         0         1
     27188     27187     27189         0         1
     27191     27190     27192         0         1
     27194     27193     27195         0         1
     27197     27196     27198         0         1
     27200     27199     27201         0         1
     27203     27202     27204         0         1
     27206     27205     27207         0         1
     27209     27208     27210         0         1
     27212     27211     27213         0         1
     27215     27214     27216         0         1
     27218     27217     27219         0         1
     27221     27220     27222         0         1
     27224     27223     27225         0         1
     27227     27226     27228         0         1
     27230     27229     27231         0         1
     27233     27232     27234         0         1
     27236     27235     27237         0         1
     27239     27238     27240         0         1
     27242     27241     27243         0         1
     27245     27244     27246         0         1
     27248     27247     27249         0         1
     27251     27250     27252         0         1
     27254     27253     27255         0         1
     27257     27256     27258         0         1
     27260     27259     27261         0         1
     27263     27262     27264         0         1
     27266     27265     27267         0         1
     27269     27268     27270         0         1
     27272     27271     27273         0         1
     27275     27274     27276         0         1
     27278     27277     27279         0         1
     27281     27280     27282         0         1
     27284     27283     27285         0         1
     27287     27286     27288         0         1
     27290     27289     27291         0         1
     27293     27292     27294         0         1
     27296     27295     27297         0         1
     27299     27298     27300         0         1
     27302     27301     27303         0         1
     27305     27304     27306         0         1
     27308     27307     27309         0         1
     27311     27310     27312         0         1
     27314     27313     27315         0         1
     27317     27316     27318         0         1
     27320     27319     27321         0         1
     27323     27322     27324         0         1
     27326     27325     27327         0         1
     27329     27328     27330         0         1
     27332     27331     27333         0         1
     27335     27334     27336         0         1
     27338     27337     27339         0         1
     27341     27340     27342         0         1
     27344     27343     27345         0         1
     27347     27346     27348         0         1
     27350     27349     27351         0         1
     27353     27352     27354         0         1
     27356     27355     27357         0         1
     27359     27358     27360         0         1
     27362     27361     27363         0         1
     27365     27364     27366         0         1
     27368     27367     27369         0         1
     27371     27370     27372         0         1
     27374     27373     27375         0         1
     27377     27376     27378         0         1
     27380     27379     27381         0         1
     27383     27382     27384         0         1
     27386     27385     27387         0         1
     27389     27388     27390         0         1
     27392     27391     27393         0         1
     27395     27394     27396         0         1
     27398     27397     27399         0         1
     27401     27400     27402         0         1
     27404     27403     27405         0         1
     27407     27406     27408         0         1
     27410     27409     27411         0         1
     27413     27412     27414         0         1
     27416     27415     27417         0         1
     27419     27418     27420         0         1
     27422     27421     27423         0         1
     27425     27424     27426         0         1
     27428     27427     27429         0         1
     27431     27430     27432         0         1
     27434     27433     27435         0         1
     27437     27436     27438         0         1
     27440     27439     27441         0         1
     27443     27442     27444         0         1
     27446     27445     27447         0         1
     27449     27448     27450         0         1
     27452     27451     27453         0         1
     27455     27454     27456         0         1
     27458     27457     27459         0         1
     27461     27460     27462         0         1
     27464     27463     27465         0         1
     27467     27466     27468         0         1
     27470     27469     27471         0         1
     27473     27472     27474         0         1
     27476     27475     27477         0         1
     27479     27478     27480         0         1
     27482     27481     27483         0         1
     27485     27484     27486         0         1
     27488     27487     27489         0         1
     27491     27490     27492         0         1
     27494     27493     27495         0         1
     27497     27496     27498         0         1
     27500     27499     27501         0         1
     27503     27502     27504         0         1
     27506     27505     27507         0         1
     27509     27508     27510         0         1
     27512     27511     27513         0         1
     27515     27514     27516         0         1
     27518     27517     27519         0         1
     27521     27520     27522         0         1
     27524     27523     27525         0         1
     27527     27526     27528         0         1
     27530     27529     27531         0         1
     27533     27532     27534         0         1
     27536     27535     27537         0         1
     27539     27538     27540         0         1
     27542     27541     27543         0         1
     27545     27544     27546         0         1
     27548     27547     27549         0         1
     27551     27550     27552         0         1
     27554     27553     27555         0         1
     27557     27556     27558         0         1
     27560     27559     27561         0         1
     27563     27562     27564         0         1
     27566     27565     27567         0         1
     27569     27568     27570         0         1
     27572     27571     27573         0         1
     27575     27574     27576         0         1
     27578     27577     27579         0         1
     27581     27580     27582         0         1
     27584     27583     27585         0         1
     27587     27586     27588         0         1
     27590     27589     27591         0         1
     27593     27592     27594         0         1
     27596     27595     27597         0         1
     27599     27598     27600         0         1
     27602     27601     27603         0         1
     27605     27604     27606         0         1
     27608     27607     27609         0         1
     27611     27610     27612         0         1
     27614     27613     27615         0         1
     27617     27616     27618         0         1
     27620     27619     27621         0         1
     27623     27622     27624         0         1
     27626     27625     27627         0         1
     27629     27628     27630         0         1
     27632     27631     27633         0         1
     27635     27634     27636         0         1
     27638     27637     27639         0         1
     27641     27640     27642         0         1
     27644     27643     27645         0         1
     27647     27646     27648         0         1
     27650     27649     27651         0         1
     27653     27652     27654         0         1
     27656     27655     27657         0         1
     27659     27658     27660         0         1
     27662     27661     27663         0         1
     27665     27664     27666         0         1
     27668     27667     27669         0         1
     27671     27670     27672         0         1
     27674     27673     27675         0         1
     27677     27676     27678         0         1
     27680     27679     27681         0         1
     27683     27682     27684         0         1
     27686     27685     27687         0         1
     27689     27688     27690         0         1
     27692     27691     27693         0         1
     27695     27694     27696         0         1
     27698     27697     27699         0         1
     27701     27700     27702         0         1
     27704     27703     27705         0         1
     27707     27706     27708         0         1
     27710     27709     27711         0         1
     27713     27712     27714         0         1
     27716     27715     27717         0         1
     27719     27718     27720         0         1
     27722     27721     27723         0         1
     27725     27724     27726         0         1
     27728     27727     27729         0         1
     27731     27730     27732         0         1
     27734     27733     27735         0         1
     27737     27736     27738         0         1
     27740     27739     27741         0         1
     27743     27742     27744         0         1
     27746     27745     27747         0         1
     27749     27748     27750         0         1
     27752     27751     27753         0         1
     27755     27754     27756         0         1
     27758     27757     27759         0         1
     27761     27760     27762         0         1
     27764     27763     27765         0         1
     27767     27766     27768         0         1
     27770     27769     27771         0         1
     27773     27772     27774         0         1
     27776     27775     27777         0         1
     27779     27778     27780         0         1
     27782     27781     27783         0         1
     27785     27784     27786         0         1
     27788     27787     27789         0         1
     27791     27790     27792         0         1
     27794     27793     27795         0         1
     27797     27796     27798         0         1
     27800     27799     27801         0         1
     27803     27802     27804         0         1
     27806     27805     27807         0         1
     27809     27808     27810         0         1
     27812     27811     27813         0         1
     27815     27814     27816         0         1
     27818     27817     27819         0         1
     27821     27820     27822         0         1
     27824     27823     27825         0         1
     27827     27826     27828         0         1
     27830     27829     27831         0         1
     27833     27832     27834         0         1
     27836     27835     27837         0         1
     27839     27838     27840         0         1
     27842     27841     27843         0         1
     27845     27844     27846         0         1
     27848     27847     27849         0         1
     27851     27850     27852         0         1
     27854     27853     27855         0         1
     27857     27856     27858         0         1
     27860     27859     27861         0         1
     27863     27862     27864         0         1
     27866     27865     27867         0         1
     27869     27868     27870         0         1
     27872     27871     27873         0         1
     27875     27874     27876         0         1
     27878     27877     27879         0         1
     27881     27880     27882         0         1
     27884     27883     27885         0         1
     27887     27886     27888         0         1
     27890     27889     27891         0         1
     27893     27892     27894         0         1
     27896     27895     27897         0         1
     27899     27898     27900         0         1
     27902     27901     27903         0         1
     27905     27904     27906         0         1
     27908     27907     27909         0         1
     27911     27910     27912         0         1
     27914     27913     27915         0         1
     27917     27916     27918         0         1
     27920     27919     27921         0         1
     27923     27922     27924         0         1
     27926     27925     27927         0         1
     27929     27928     27930         0         1
     27932     27931     27933         0         1
     27935     27934     27936         0         1
     27938     27937     27939         0         1
     27941     27940     27942         0         1
     27944     27943     27945         0         1
     27947     27946     27948         0         1
     27950     27949     27951         0         1
     27953     27952     27954         0         1
     27956     27955     27957         0         1
     27959     27958     27960         0         1
     27962     27961     27963         0         1
     27965     27964     27966         0         1
     27968     27967     27969         0         1
     27971     27970     27972         0         1
     27974     27973     27975         0         1
     27977     27976     27978         0         1
     27980     27979     27981         0         1
     27983     27982     27984         0         1
     27986     27985     27987         0         1
     27989     27988     27990         0         1
     27992     27991     27993         0         1
     27995     27994     27996         0         1
     27998     27997     27999         0         1
     28001     28000     28002         0         1
     28004     28003     28005         0         1
     28007     28006     28008         0         1
     28010     28009     28011         0         1
     28013     28012     28014         0         1
     28016     28015     28017         0         1
     28019     28018     28020         0         1
     28022     28021     28023         0         1
     28025     28024     28026         0         1
     28028     28027     28029         0         1
     28031     28030     28032         0         1
     28034     28033     28035         0         1
     28037     28036     28038         0         1
     28040     28039     28041         0         1
     28043     28042     28044         0         1
     28046     28045     28047         0         1
     28049     28048     28050         0         1
     28052     28051     28053         0         1
     28055     28054     28056         0         1
     28058     28057     28059         0         1
     28061     28060     28062         0         1
     28064     28063     28065         0         1
     28067     28066     28068         0         1
     28070     28069     28071         0         1
     28073     28072     28074         0         1
     28076     28075     28077         0         1
     28079     28078     28080         0         1
     28082     28081     28083         0         1
     28085     28084     28086         0         1
     28088     28087     28089         0         1
     28091     28090     28092         0         1
     28094     28093     28095         0         1
     28097     28096     28098         0         1
     28100     28099     28101         0         1
     28103     28102     28104         0         1
     28106     28105     28107         0         1
     28109     28108     28110         0         1
     28112     28111     28113         0         1
     28115     28114     28116         0         1
     28118     28117     28119         0         1
     28121     28120     28122         0         1
     28124     28123     28125         0         1
     28127     28126     28128         0         1
     28130     28129     28131         0         1
     28133     28132     28134         0         1
     28136     28135     28137         0         1
     28139     28138     28140         0         1
     28142     28141     28143         0         1
     28145     28144     28146         0         1
     28148     28147     28149         0         1
     28151     28150     28152         0         1
     28154     28153     28155         0         1
     28157     28156     28158         0         1
     28160     28159     28161         0         1
     28163     28162     28164         0         1
     28166     28165     28167         0         1
     28169     28168     28170         0         1
     28172     28171     28173         0         1
     28175     28174     28176         0         1
     28178     28177     28179         0         1
     28181     28180     28182         0         1
     28184     28183     28185         0         1
     28187     28186     28188         0         1
     28190     28189     28191         0         1
     28193     28192     28194         0         1
     28196     28195     28197         0         1
     28199     28198     28200         0         1
     28202     28201     28203         0         1
     28205     28204     28206         0         1
     28208     28207     28209         0         1
     28211     28210     28212         0         1
     28214     28213     28215         0         1
     28217     28216     28218         0         1
     28220     28219     28221         0         1
     28223     28222     28224         0         1
     28226     28225     28227         0         1
     28229     28228     28230         0         1
     28232     28231     28233         0         1
     28235     28234     28236         0         1
     28238     28237     28239         0         1
     28241     28240     28242         0         1
     28244     28243     28245         0         1
     28247     28246     28248         0         1
     28250     28249     28251         0         1
     28253     28252     28254         0         1
     28256     28255     28257         0         1
     28259     28258     28260         0         1
     28262     28261     28263         0         1
     28265     28264     28266         0         1
     28268     28267     28269         0         1
     28271     28270     28272         0         1
     28274     28273     28275         0         1
     28277     28276     28278         0         1
     28280     28279     28281         0         1
     28283     28282     28284         0         1
     28286     28285     28287         0         1
     28289     28288     28290         0         1
     28292     28291     28293         0         1
     28295     28294     28296         0         1
     28298     28297     28299         0         1
     28301     28300     28302         0         1
     28304     28303     28305         0         1
     28307     28306     28308         0         1
     28310     28309     28311         0         1
     28313     28312     28314         0         1
     28316     28315     28317         0         1
     28319     28318     28320         0         1
     28322     28321     28323         0         1
     28325     28324     28326         0         1
     28328     28327     28329         0         1
     28331     28330     28332         0         1
     28334     28333     28335         0         1
     28337     28336     28338         0         1
     28340     28339     28341         0         1
     28343     28342     28344         0         1
     28346     28345     28347         0         1
     28349     28348     28350         0         1
     28352     28351     28353         0         1
     28355     28354     28356         0         1
     28358     28357     28359         0         1
     28361     28360     28362         0         1
     28364     28363     28365         0         1
     28367     28366     28368         0         1
     28370     28369     28371         0         1
     28373     28372     28374         0         1
     28376     28375     28377         0         1
     28379     28378     28380         0         1
     28382     28381     28383         0         1
     28385     28384     28386         0         1
     28388     28387     28389         0         1
     28391     28390     28392         0         1
     28394     28393     28395         0         1
     28397     28396     28398         0         1
     28400     28399     28401         0         1
     28403     28402     28404         0         1
     28406     28405     28407         0         1
     28409     28408     28410         0         1
     28412     28411     28413         0         1
     28415     28414     28416         0         1
     28418     28417     28419         0         1
     28421     28420     28422         0         1
     28424     28423     28425         0         1
     28427     28426     28428         0         1
     28430     28429     28431         0         1
     28433     28432     28434         0         1
     28436     28435     28437         0         1
     28439     28438     28440         0         1
     28442     28441     28443         0         1
     28445     28444     28446         0         1
     28448     28447     28449         0         1
     28451     28450     28452         0         1
     28454     28453     28455         0         1
     28457     28456     28458         0         1
     28460     28459     28461         0         1
     28463     28462     28464         0         1
     28466     28465     28467         0         1
     28469     28468     28470         0         1
     28472     28471     28473         0         1
     28475     28474     28476         0         1
     28478     28477     28479         0         1
     28481     28480     28482         0         1
     28484     28483     28485         0         1
     28487     28486     28488         0         1
     28490     28489     28491         0         1
     28493     28492     28494         0         1
     28496     28495     28497         0         1
     28499     28498     28500         0         1
     28502     28501     28503         0         1
     28505     28504     28506         0         1
     28508     28507     28509         0         1
     28511     28510     28512         0         1
     28514     28513     28515         0         1
     28517     28516     28518         0         1
     28520     28519     28521         0         1
     28523     28522     28524         0         1
     28526     28525     28527         0         1
     28529     28528     28530         0         1
     28532     28531     28533         0         1
     28535     28534     28536         0         1
     28538     28537     28539         0         1
     28541     28540     28542         0         1
     28544     28543     28545         0         1
     28547     28546     28548         0         1
     28550     28549     28551         0         1
     28553     28552     28554         0         1
     28556     28555     28557         0         1
     28559     28558     28560         0         1
     28562     28561     28563         0         1
     28565     28564     28566         0         1
     28568     28567     28569         0         1
     28571     28570     28572         0         1
     28574     28573     28575         0         1
     28577     28576     28578         0         1
     28580     28579     28581         0         1
     28583     28582     28584         0         1
     28586     28585     28587         0         1
     28589     28588     28590         0         1
     28592     28591     28593         0         1
     28595     28594     28596         0         1
     28598     28597     28599         0         1
     28601     28600     28602         0         1
     28604     28603     28605         0         1
     28607     28606     28608         0         1
     28610     28609     28611         0         1
     28613     28612     28614         0         1
     28616     28615     28617         0         1
     28619     28618     28620         0         1
     28622     28621     28623         0         1
     28625     28624     28626         0         1
     28628     28627     28629         0         1
     28631     28630     28632         0         1
     28634     28633     28635         0         1
     28637     28636     28638         0         1
     28640     28639     28641         0         1
     28643     28642     28644         0         1
     28646     28645     28647         0         1
     28649     28648     28650         0         1
     28652     28651     28653         0         1
     28655     28654     28656         0         1
     28658     28657     28659         0         1
     28661     28660     28662         0         1
     28664     28663     28665         0         1
     28667     28666     28668         0         1
     28670     28669     28671         0         1
     28673     28672     28674         0         1
     28676     28675     28677         0         1
     28679     28678     28680         0         1
     28682     28681     28683         0         1
     28685     28684     28686         0         1
     28688     28687     28689         0         1
     28691     28690     28692         0         1
     28694     28693     28695         0         1
     28697     28696     28698         0         1
     28700     28699     28701         0         1
     28703     28702     28704         0         1
     28706     28705     28707         0         1
     28709     28708     28710         0         1
     28712     28711     28713         0         1
     28715     28714     28716         0         1
     28718     28717     28719         0         1
     28721     28720     28722         0         1
     28724     28723     28725         0         1
     28727     28726     28728         0         1
     28730     28729     28731         0         1
     28733     28732     28734         0         1
     28736     28735     28737         0         1
     28739     28738     28740         0         1
     28742     28741     28743         0         1
     28745     28744     28746         0         1
     28748     28747     28749         0         1
     28751     28750     28752         0         1
     28754     28753     28755         0         1
     28757     28756     28758         0         1
     28760     28759     28761         0         1
     28763     28762     28764         0         1
     28766     28765     28767         0         1
     28769     28768     28770         0         1
     28772     28771     28773         0         1
     28775     28774     28776         0         1
     28778     28777     28779         0         1
     28781     28780     28782         0         1
     28784     28783     28785         0         1
     28787     28786     28788         0         1
     28790     28789     28791         0         1
     28793     28792     28794         0         1
     28796     28795     28797         0         1
     28799     28798     28800         0         1
